LAMMPS (22 Aug 2018)
####################################################
# Transport properties of KCl in water
#  at 298 K and 1 atm.
#################### SETTING UP ####################
units real
dimension 3
newton on
boundary p p p
atom_style full

#################### VARIABLES ####################
variable Temp equal 298       # Temperature in K
variable Pres equal 1.0       # Pressure in atm.

variable RandomSeed equal 600 # The random seed for velocity
variable tstep equal 2.0      # 2fs
variable Ninptpre equal 10000 # Pre-initialize the NPT ensemble (very small timesteps)
variable Ninpt equal 5000000    # Initialize the NPT ensemble
variable Npnpt equal 5000000  # Production in the NPT ensemble (volume)
variable Ninvtpre equal 10000 # Pre-initialize the NVT ensemble (very small timesteps)
variable Ninvt equal 100000   # Initialize the NVT ensemble
variable Npnvt equal 100000   # Production in the NVT ensemble (energy)
variable Nrun equal 100000000   # production in the NVE ensemble
variable Nf equal 10000       # Nfreq (fix ave/time and thermo)
variable Ne equal  10         # Nevery (fix ave/time)
variable Nr equal ${Nf}/${Ne} # Nrepeat (fix ave/time)
variable Nr equal 10000/${Ne} 
variable Nr equal 10000/10 
variable NBR equal ${Npnpt}/50 # Block averaging for density (NPT)
variable NBR equal 5000000/50 
variable Nd equal ${Npnvt}/10 # Frequency of outputting positions of atoms in the NVT ensemble
variable Nd equal 100000/10 

variable nb equal 10          # Number of blocks (fix ordern)
variable nbe equal 20         # Number of block elements (fix ordern)
variable Nvisc equal 5        # Nevery for viscosity (fix ordern: sample data at (Nvisc*2))
variable Ncond equal 5        # Nevery for Tconductivity (fix ordern: sample data at (Ncond*2))
variable Ndiff equal 1000     # Nevery for diffusivity (fix ordern: sample data at (Ndiff))
variable Nwrit equal 100000   # Nwrite for transport properties (fix ordern: write every (Nwrit))

variable Nrdfe equal 100      # Nevery for RDF (fix ave/time)
variable Nrdfw equal 1000     # Nwrite for RDF (compute rdf/ext: write every (Nrdfw*Nrdfe))
variable binnum equal 2000    # Number of bins for RDF

#################### ATOM DEFINITION and FORCEFIELD ####################
read_data ./data.lmp                     # read the positions
  orthogonal box = (0 0 0) to (32.8974 32.8974 32.8974)
  4 by 4 by 8 MPI processor grid
  reading atoms ...
  3072 atoms
  scanning bonds ...
  2 = max bonds/atom
  scanning angles ...
  1 = max angles/atom
  reading bonds ...
  2000 bonds
  reading angles ...
  1000 angles
  2 = max # of 1-2 neighbors
  1 = max # of 1-3 neighbors
  1 = max # of 1-4 neighbors
  2 = max # of special neighbors
include ./forcefield.data                  # read the force field
#--------INTERMOLECULAR POTENTIAL -------------------#
# ---------------Developed for NaCl in water (tip4p/2005) system-----

mass 1 15.9994 # Ow
mass 2 1.00794 # Hw
mass 3 39.0983 # K
mass 4 35.4527 # Cl

pair_style lj/cut/tip4p/long 1 2 1 1 0.1546 10.0

kspace_style pppm/tip4p 1.0e-5
pair_modify tail yes # ATC i

#-----------------Combinations----------------------------
# atomtype atomtype epsilon sigma

pair_coeff 1 1 0.1851 3.1589     # Ow-Ow
pair_coeff 1 2 0.0000 0.0000     # Ow-Hw
pair_coeff 1 3 0.3347 2.89540     # Ow-K
pair_coeff 1 4 0.0148 4.07631     # Ow-Cl

pair_coeff 2 2 0.0000 0.0000     # Hw-Hw
pair_coeff 2 3 0.0000 0.0000     # Hw-K
pair_coeff 2 4 0.0000 0.0000     # Hw-Cl

pair_coeff 3 3 0.4746 2.30140     # K-K
pair_coeff 3 4 0.3346 3.41700     # K-Cl

pair_coeff 4 4 0.0184 4.69906     # Cl-Cl

bond_style  harmonic
bond_coeff 1 1000 0.9572          # Ow-Hw

angle_style harmonic
angle_coeff 1 100 104.52          # H-O-H

#dihedral_style none
#improper_style none

set type 1 charge -1.1128        # O
  1000 settings made for charge
set type 2 charge +0.5564        # OH
  2000 settings made for charge
set type 3 charge +0.7500        # K
  36 settings made for charge
set type 4 charge -0.7500        # Cl
  36 settings made for charge


#################### INITIALIZATION ####################
# groups for the central atoms of water (O)
group wat type 1      # The Oxygen of WATER molecules
1000 atoms in group wat
group K type 3
36 atoms in group K
group Cl type 4
36 atoms in group Cl

# neigbor lists
neighbor 2.0 bin
neigh_modify every 1 delay 0 check yes

# velocity-Verlet integrator
run_style verlet

# minimizing the system using the conjugate gradient method
min_style cg
min_modify dmax 0.05
minimize 1.0e-6 1.0e-6 1000 10000
PPPM initialization ...
  extracting TIP4P info from pair style
  using 12-bit tables for long-range coulomb (../kspace.cpp:321)
  G vector (1/distance) = 0.308492
  grid = 30 30 30
  stencil order = 5
  estimated absolute RMS force accuracy = 0.00396779
  estimated relative force accuracy = 1.19489e-05
  using double precision FFTs
  3d grid and FFT values/proc = 2475 256
Neighbor list info ...
  update every 1 steps, delay 0 steps, check yes
  max neighbors/atom: 2000, page size: 100000
  master list distance cutoff = 12.3092
  ghost atom cutoff = 12.3092
  binsize = 6.1546, bins = 6 6 6
  1 neighbor lists, perpetual/occasional/extra = 1 0 0
  (1) pair lj/cut/tip4p/long, perpetual
      attributes: half, newton on
      pair build: half/bin/newton
      stencil: half/bin/3d/newton
      bin: standard
Per MPI rank memory allocation (min/avg/max) = 8.191 | 8.258 | 8.457 Mbytes
Step Temp E_pair E_mol TotEng Press 
       0            0   -533.24652 3.2833764e-05   -533.24649    18749.729 
    1000            0   -17665.195    375.59183   -17289.603   -4566.8555 
Loop time of 1.4124 on 128 procs for 1000 steps with 3072 atoms

99.1% CPU use with 128 MPI tasks x no OpenMP threads

Minimization stats:
  Stopping criterion = max iterations
  Energy initial, next-to-last, final = 
        -533.246487313     -17289.2230974     -17289.6031842
  Force two-norm initial, final = 1265.98 42.907
  Force max component initial, final = 165.576 8.87677
  Final line search alpha, max atom move = 0.00715157 0.0634828
  Iterations, force evaluations = 1000 1788

MPI task timing breakdown:
Section |  min time  |  avg time  |  max time  |%varavg| %total
---------------------------------------------------------------
Pair    | 0.1937     | 0.35611    | 0.55202    |  12.0 | 25.21
Bond    | 0.0011153  | 0.0016107  | 0.0022165  |   0.5 |  0.11
Kspace  | 0.58892    | 0.79256    | 0.96052    |   8.0 | 56.11
Neigh   | 0.0061837  | 0.006332   | 0.006482   |   0.1 |  0.45
Comm    | 0.15649    | 0.17684    | 0.19756    |   2.5 | 12.52
Output  | 8.8776e-05 | 9.152e-05  | 9.5188e-05 |   0.0 |  0.01
Modify  | 0          | 0          | 0          |   0.0 |  0.00
Other   |            | 0.07886    |            |       |  5.58

Nlocal:    24 ave 36 max 12 min
Histogram: 3 3 16 16 20 30 20 15 4 1
Nghost:    2651.09 ave 2706 max 2611 min
Histogram: 22 12 19 24 3 1 16 14 11 6
Neighs:    8116.65 ave 14013 max 3703 min
Histogram: 4 10 14 29 25 25 11 8 1 1

Total # of neighbors = 1038931
Ave neighs/atom = 338.194
Ave special neighs/atom = 1.95312
Neighbor list builds = 20
Dangerous builds = 0
reset_timestep 0

# initializing velocities
velocity all create ${Temp} ${RandomSeed}
velocity all create 298 ${RandomSeed}
velocity all create 298 600

# rate of writing thermal properties to the log file
thermo ${Nf}
thermo 10000

#################### 1) Initialize the NPT ensemble ####################
# applying the shake algorithm for rigid molecules and the NPT solver
fix constrain all shake 1.0e-6 1000 0 b 1 a 1
  0 = # of size 2 clusters
  0 = # of size 3 clusters
  0 = # of size 4 clusters
  1000 = # of frozen angles
fix integrate all npt temp ${Temp} ${Temp} 10.0 iso ${Pres} ${Pres} 100.0
fix integrate all npt temp 298 ${Temp} 10.0 iso ${Pres} ${Pres} 100.0
fix integrate all npt temp 298 298 10.0 iso ${Pres} ${Pres} 100.0
fix integrate all npt temp 298 298 10.0 iso 1 ${Pres} 100.0
fix integrate all npt temp 298 298 10.0 iso 1 1 100.0


# Initializing the whole system with very small timesteps in the NPT ensemble
timestep 0.001
run ${Ninptpre}
run 10000
PPPM initialization ...
  extracting TIP4P info from pair style
  using 12-bit tables for long-range coulomb (../kspace.cpp:321)
  G vector (1/distance) = 0.308492
  grid = 30 30 30
  stencil order = 5
  estimated absolute RMS force accuracy = 0.00396779
  estimated relative force accuracy = 1.19489e-05
  using double precision FFTs
  3d grid and FFT values/proc = 2475 256
Per MPI rank memory allocation (min/avg/max) = 7.941 | 8.096 | 8.208 Mbytes
Step Temp E_pair E_mol TotEng Press Volume 
       0    441.89184   -17665.195            0   -14937.283   -36563.205    35602.788 
   10000    171.46627   -16049.945            0   -14991.439    1705.2472    35485.094 
Loop time of 9.47535 on 128 procs for 10000 steps with 3072 atoms

Performance: 0.091 ns/day, 263.204 hours/ns, 1055.369 timesteps/s
99.5% CPU use with 128 MPI tasks x no OpenMP threads

MPI task timing breakdown:
Section |  min time  |  avg time  |  max time  |%varavg| %total
---------------------------------------------------------------
Pair    | 1.1068     | 2.3439     | 4.0327     |  36.3 | 24.74
Bond    | 0.00090116 | 0.0010636  | 0.0015957  |   0.4 |  0.01
Kspace  | 3.1761     | 4.9036     | 6.1152     |  25.0 | 51.75
Neigh   | 0          | 0          | 0          |   0.0 |  0.00
Comm    | 0.83617    | 0.96682    | 1.1039     |   6.6 | 10.20
Output  | 8.6481e-05 | 8.9275e-05 | 9.3114e-05 |   0.0 |  0.00
Modify  | 0.92773    | 1.1256     | 1.2076     |   6.1 | 11.88
Other   |            | 0.1343     |            |       |  1.42

Nlocal:    24 ave 36 max 12 min
Histogram: 4 3 13 17 18 34 17 17 4 1
Nghost:    2652.02 ave 2706 max 2613 min
Histogram: 18 14 15 31 2 1 19 12 10 6
Neighs:    8116.63 ave 13979 max 3878 min
Histogram: 6 8 20 20 28 26 11 7 1 1

Total # of neighbors = 1038929
Ave neighs/atom = 338.193
Ave special neighs/atom = 1.95312
Neighbor list builds = 0
Dangerous builds = 0
timestep 0.01
run ${Ninptpre}
run 10000
PPPM initialization ...
  extracting TIP4P info from pair style
  using 12-bit tables for long-range coulomb (../kspace.cpp:321)
  G vector (1/distance) = 0.308572
  grid = 30 30 30
  stencil order = 5
  estimated absolute RMS force accuracy = 0.00395474
  estimated relative force accuracy = 1.19096e-05
  using double precision FFTs
  3d grid and FFT values/proc = 2475 256
Per MPI rank memory allocation (min/avg/max) = 7.941 | 8.098 | 8.208 Mbytes
Step Temp E_pair E_mol TotEng Press Volume 
   10000    171.46627   -16049.944            0   -14991.439   -25823.777    35485.094 
   20000    293.56406   -14856.858            0   -13044.612   -803.08512    35911.562 
Loop time of 8.97943 on 128 procs for 10000 steps with 3072 atoms

Performance: 0.962 ns/day, 24.943 hours/ns, 1113.657 timesteps/s
99.5% CPU use with 128 MPI tasks x no OpenMP threads

MPI task timing breakdown:
Section |  min time  |  avg time  |  max time  |%varavg| %total
---------------------------------------------------------------
Pair    | 1.1426     | 2.3116     | 3.7304     |  35.0 | 25.74
Bond    | 0.00090078 | 0.0010588  | 0.001495   |   0.3 |  0.01
Kspace  | 2.9949     | 4.4485     | 5.5933     |  25.0 | 49.54
Neigh   | 0.0011461  | 0.0011845  | 0.0012205  |   0.0 |  0.01
Comm    | 0.81964    | 0.94665    | 1.0731     |   6.6 | 10.54
Output  | 8.4718e-05 | 8.7104e-05 | 9.0359e-05 |   0.0 |  0.00
Modify  | 0.95341    | 1.141      | 1.2276     |   6.0 | 12.71
Other   |            | 0.1294     |            |       |  1.44

Nlocal:    24 ave 34 max 14 min
Histogram: 2 7 10 15 22 24 21 17 7 3
Nghost:    2630.74 ave 2682 max 2585 min
Histogram: 9 5 15 27 19 13 18 8 8 6
Neighs:    8039.47 ave 12971 max 4516 min
Histogram: 9 12 19 17 22 26 13 6 3 1

Total # of neighbors = 1029052
Ave neighs/atom = 334.978
Ave special neighs/atom = 1.95312
Neighbor list builds = 4
Dangerous builds = 0
timestep 0.1
run ${Ninptpre}
run 10000
PPPM initialization ...
  extracting TIP4P info from pair style
  using 12-bit tables for long-range coulomb (../kspace.cpp:321)
  G vector (1/distance) = 0.308283
  grid = 30 30 30
  stencil order = 5
  estimated absolute RMS force accuracy = 0.00400203
  estimated relative force accuracy = 1.2052e-05
  using double precision FFTs
  3d grid and FFT values/proc = 2475 256
Per MPI rank memory allocation (min/avg/max) = 7.941 | 8.106 | 8.208 Mbytes
Step Temp E_pair E_mol TotEng Press Volume 
   20000    293.56406   -14856.858            0   -13044.611   -13047.447    35911.562 
   30000    297.32744   -14820.417            0   -12984.938   -658.52798    32916.531 
Loop time of 9.30745 on 128 procs for 10000 steps with 3072 atoms

Performance: 9.283 ns/day, 2.585 hours/ns, 1074.409 timesteps/s
99.4% CPU use with 128 MPI tasks x no OpenMP threads

MPI task timing breakdown:
Section |  min time  |  avg time  |  max time  |%varavg| %total
---------------------------------------------------------------
Pair    | 1.4619     | 2.5296     | 3.5496     |  23.7 | 27.18
Bond    | 0.00088489 | 0.0010802  | 0.0015345  |   0.4 |  0.01
Kspace  | 3.3295     | 4.3936     | 5.4614     |  17.9 | 47.21
Neigh   | 0.015423   | 0.015702   | 0.015942   |   0.1 |  0.17
Comm    | 0.9434     | 1.0437     | 1.1564     |   4.7 | 11.21
Output  | 8.6381e-05 | 8.9031e-05 | 9.2634e-05 |   0.0 |  0.00
Modify  | 0.97851    | 1.1751     | 1.2589     |   6.1 | 12.62
Other   |            | 0.1486     |            |       |  1.60

Nlocal:    24 ave 32 max 15 min
Histogram: 2 3 15 10 30 24 13 22 6 3
Nghost:    2828.18 ave 2869 max 2806 min
Histogram: 7 23 25 32 20 5 8 3 3 2
Neighs:    8753.38 ave 12888 max 5556 min
Histogram: 5 11 15 21 33 18 18 1 4 2

Total # of neighbors = 1120432
Ave neighs/atom = 364.724
Ave special neighs/atom = 1.95312
Neighbor list builds = 47
Dangerous builds = 0
timestep 0.2
run ${Ninptpre}
run 10000
PPPM initialization ...
  extracting TIP4P info from pair style
  using 12-bit tables for long-range coulomb (../kspace.cpp:321)
  G vector (1/distance) = 0.310385
  grid = 30 30 30
  stencil order = 5
  estimated absolute RMS force accuracy = 0.00367014
  estimated relative force accuracy = 1.10525e-05
  using double precision FFTs
  3d grid and FFT values/proc = 2475 256
Per MPI rank memory allocation (min/avg/max) = 7.95 | 8.174 | 8.217 Mbytes
Step Temp E_pair E_mol TotEng Press Volume 
   30000    297.32744   -14820.419            0    -12984.94   -1616.4187    32916.531 
   40000    299.73067   -14930.043            0   -13079.729    220.07291    31892.016 
Loop time of 9.69829 on 128 procs for 10000 steps with 3072 atoms

Performance: 17.818 ns/day, 1.347 hours/ns, 1031.109 timesteps/s
99.4% CPU use with 128 MPI tasks x no OpenMP threads

MPI task timing breakdown:
Section |  min time  |  avg time  |  max time  |%varavg| %total
---------------------------------------------------------------
Pair    | 1.666      | 2.6456     | 3.5423     |  21.8 | 27.28
Bond    | 0.00092292 | 0.0010801  | 0.0015682  |   0.4 |  0.01
Kspace  | 3.6619     | 4.5596     | 5.5333     |  16.5 | 47.01
Neigh   | 0.029104   | 0.029758   | 0.03025    |   0.2 |  0.31
Comm    | 0.98818    | 1.0883     | 1.2093     |   4.7 | 11.22
Output  | 8.8535e-05 | 9.1453e-05 | 9.5288e-05 |   0.0 |  0.00
Modify  | 1.028      | 1.2292     | 1.3147     |   6.0 | 12.67
Other   |            | 0.1448     |            |       |  1.49

Nlocal:    24 ave 34 max 15 min
Histogram: 1 6 12 23 29 24 20 12 0 1
Nghost:    2895.23 ave 2944 max 2863 min
Histogram: 8 9 29 27 17 17 9 8 2 2
Neighs:    9045.2 ave 12830 max 4866 min
Histogram: 1 4 13 16 22 26 20 17 5 4

Total # of neighbors = 1157785
Ave neighs/atom = 376.883
Ave special neighs/atom = 1.95312
Neighbor list builds = 95
Dangerous builds = 0
timestep 0.5
run ${Ninptpre}
run 10000
PPPM initialization ...
  extracting TIP4P info from pair style
  using 12-bit tables for long-range coulomb (../kspace.cpp:321)
  G vector (1/distance) = 0.311144
  grid = 30 30 30
  stencil order = 5
  estimated absolute RMS force accuracy = 0.00355673
  estimated relative force accuracy = 1.0711e-05
  using double precision FFTs
  3d grid and FFT values/proc = 2475 256
Per MPI rank memory allocation (min/avg/max) = 7.956 | 8.205 | 8.218 Mbytes
Step Temp E_pair E_mol TotEng Press Volume 
   40000    299.73067   -14930.043            0   -13079.728    2151.2366    31892.016 
   50000    298.30301   -15058.895            0   -13217.394   -628.39654    32061.074 
Loop time of 9.9884 on 128 procs for 10000 steps with 3072 atoms

Performance: 43.250 ns/day, 0.555 hours/ns, 1001.162 timesteps/s
99.4% CPU use with 128 MPI tasks x no OpenMP threads

MPI task timing breakdown:
Section |  min time  |  avg time  |  max time  |%varavg| %total
---------------------------------------------------------------
Pair    | 1.9922     | 2.7056     | 3.5456     |  20.1 | 27.09
Bond    | 0.00089062 | 0.0010949  | 0.0016213  |   0.4 |  0.01
Kspace  | 3.781      | 4.6153     | 5.3056     |  15.2 | 46.21
Neigh   | 0.074562   | 0.075991   | 0.077411   |   0.4 |  0.76
Comm    | 1.0321     | 1.1687     | 1.3345     |   5.6 | 11.70
Output  | 9.1451e-05 | 9.4855e-05 | 0.00010703 |   0.0 |  0.00
Modify  | 1.0116     | 1.2418     | 1.3646     |   7.0 | 12.43
Other   |            | 0.1799     |            |       |  1.80

Nlocal:    24 ave 33 max 17 min
Histogram: 5 15 16 20 21 21 18 5 5 2
Nghost:    2880.91 ave 2928 max 2841 min
Histogram: 6 8 18 13 35 15 12 14 5 2
Neighs:    8966.69 ave 13189 max 5784 min
Histogram: 8 9 20 18 28 21 11 6 3 4

Total # of neighbors = 1147736
Ave neighs/atom = 373.612
Ave special neighs/atom = 1.95312
Neighbor list builds = 240
Dangerous builds = 0
reset_timestep 0

# continuing the initialization with the final value of timestep
unfix integrate
fix integrate all npt temp ${Temp} ${Temp} 100.0 iso ${Pres} ${Pres} 1000.0
fix integrate all npt temp 298 ${Temp} 100.0 iso ${Pres} ${Pres} 1000.0
fix integrate all npt temp 298 298 100.0 iso ${Pres} ${Pres} 1000.0
fix integrate all npt temp 298 298 100.0 iso 1 ${Pres} 1000.0
fix integrate all npt temp 298 298 100.0 iso 1 1 1000.0
#fix integrate all rigid/npt/small molecule temp ${Temp} ${Temp} 100.0 iso ${Pres} ${Pres} 1000.0

timestep ${tstep}
timestep 2
run ${Ninpt}
run 5000000
PPPM initialization ...
  extracting TIP4P info from pair style
  using 12-bit tables for long-range coulomb (../kspace.cpp:321)
  G vector (1/distance) = 0.311017
  grid = 30 30 30
  stencil order = 5
  estimated absolute RMS force accuracy = 0.00357544
  estimated relative force accuracy = 1.07673e-05
  using double precision FFTs
  3d grid and FFT values/proc = 2475 256
Per MPI rank memory allocation (min/avg/max) = 8.2 | 8.211 | 8.219 Mbytes
Step Temp E_pair E_mol TotEng Press Volume 
       0    298.30301   -15058.895            0   -13217.394   -654.87417    32061.074 
   10000    300.88972    -14997.14            0    -13139.67   -608.80596    31784.879 
   20000    291.03995   -15071.747            0   -13275.082    947.69729    31274.927 
   30000    298.56351   -14987.752            0   -13144.642    276.25014    31793.111 
   40000    303.54962   -14985.985            0   -13112.095   -337.71583    32040.261 
   50000    292.91972   -15013.802            0   -13205.533   -1171.1584    32409.032 
   60000    301.65467   -15062.667            0   -13200.475   -489.65385    31817.625 
   70000    296.55573    -15119.47            0   -13288.755    221.15837    31662.468 
   80000    294.06257   -15015.101            0   -13199.777    158.39065    31490.773 
   90000    294.95629   -15007.034            0   -13186.193   -444.51294     31470.08 
  100000    295.02855   -15001.007            0    -13179.72    -182.7165    31962.619 
  110000    299.49344   -14978.199            0   -13129.349    661.51141     31827.56 
  120000    297.29855   -15143.267            0   -13307.967   -735.91632    31875.063 
  130000    295.47811   -14999.072            0    -13175.01    91.402537    31810.093 
  140000    306.11624   -14999.672            0   -13109.937   -28.263724    31867.645 
  150000    296.72659   -14968.769            0   -13136.999   -93.336226    32213.764 
  160000    291.44305   -14964.258            0   -13165.105   -923.29698    31824.046 
  170000    297.72735   -15047.441            0   -13209.494    15.892988    31748.782 
  180000    296.76076   -15120.025            0   -13288.044    33.376455    31496.989 
  190000    307.75218   -15017.198            0   -13117.365    615.60719    31783.233 
  200000    296.08373   -15054.472            0   -13226.671   -311.29273    32047.915 
  210000    287.08533   -15044.374            0   -13272.123   -117.11439    31944.853 
  220000     296.0502   -15050.238            0   -13222.644   -161.68918     31729.87 
  230000    299.19367   -14978.811            0   -13131.811   -551.09992     32201.14 
  240000    291.43637   -14953.321            0   -13154.209   -150.48607    31913.562 
  250000    297.62185   -15020.996            0     -13183.7    525.93535    31862.317 
  260000    294.63817    -15052.95            0   -13234.072   -468.89774     31652.87 
  270000    295.04899   -15038.912            0   -13217.498   -25.097008    31867.497 
  280000    299.99724   -15047.761            0   -13195.801    26.434662    31710.352 
  290000    297.29322   -15025.464            0   -13190.196   -462.81795     31793.78 
  300000    306.96511   -15059.998            0   -13165.023   -42.967197     31899.85 
  310000    301.34103   -15047.995            0   -13187.739   -547.83557    31703.548 
  320000    294.78026   -15067.308            0   -13247.553    365.24476    31607.602 
  330000     298.2452   -15011.945            0     -13170.8   -838.48037    31851.809 
  340000    311.06363   -15024.507            0   -13104.232   -61.872815    32160.474 
  350000    301.14805   -15002.391            0   -13143.327    100.35637    31583.591 
  360000    296.75863   -15001.215            0   -13169.248    -851.4896     31753.17 
  370000    300.50777   -15120.856            0   -13265.744   -1480.8975    32187.878 
  380000    297.12501   -15086.852            0   -13252.622    240.40373    31887.421 
  390000    292.22957   -15070.805            0   -13266.797   -442.90912    31775.077 
  400000    298.20626   -15046.704            0     -13205.8    596.16788      31983.3 
  410000     296.6278   -15015.355            0   -13184.196    204.12885    31864.725 
  420000    292.65641   -15064.203            0    -13257.56    534.53208    31588.364 
  430000     299.3968   -15033.216            0   -13184.963   -921.63417    31995.476 
  440000      294.551   -15034.963            0   -13216.624   -586.54958    31964.058 
  450000    307.01769   -15027.267            0   -13131.968    465.85027    31551.116 
  460000    306.11372   -15085.618            0   -13195.899   -155.94183    32016.616 
  470000    300.36559   -15124.125            0   -13269.891    30.777009    31886.797 
  480000    285.34446   -15018.668            0   -13257.163   -741.07375    31850.301 
  490000    305.13025   -15022.647            0   -13138.999   -271.42854    31988.271 
  500000    292.11813   -15053.572            0   -13250.252   -285.56487    32020.937 
  510000    302.50927   -15133.347            0    -13265.88    1260.5713    31598.525 
  520000    300.23614   -15039.129            0   -13185.694    511.09849    31735.933 
  530000    290.34441   -15082.383            0   -13290.012    265.30098    31773.959 
  540000    294.12418   -15122.764            0   -13307.059   -39.391828    31542.776 
  550000    299.93223   -14936.902            0   -13085.343    66.011319    31801.961 
  560000    297.82127   -14992.187            0   -13153.659    146.36481    32045.699 
  570000    301.29033   -15087.056            0   -13227.113   -27.670463    31936.352 
  580000    305.09634   -15100.433            0   -13216.995    802.97226     31496.74 
  590000    301.13285   -15012.328            0   -13153.357    142.33117    31658.898 
  600000    301.92794   -15082.481            0   -13218.602   -645.19859      31770.8 
  610000    305.26914   -15018.926            0   -13134.421   -380.11045    31627.901 
  620000    298.29207   -15076.535            0   -13235.101    666.95165    31714.422 
  630000    300.22303   -15052.177            0   -13198.823   -383.11593    31633.885 
  640000    295.87723   -15002.716            0   -13176.189    53.880404     32319.44 
  650000    299.11338   -14926.229            0   -13079.725   -478.87426    32335.307 
  660000    312.95708   -15001.224            0   -13069.259    120.38303    31549.639 
  670000    300.23103   -14954.496            0   -13101.093    37.785322    31861.038 
  680000    292.36943   -14934.686            0   -13129.815   -501.68481    32037.128 
  690000    304.65572   -15083.371            0   -13202.653   -822.50582    32056.333 
  700000    300.13573   -15028.859            0   -13176.044    679.47906    31996.838 
  710000    292.90528   -15051.792            0   -13243.612    295.27101    31430.088 
  720000    298.11881   -14933.338            0   -13092.973    202.93533    31719.849 
  730000    295.32971   -15011.147            0   -13188.001    637.43475    31806.286 
  740000    294.90742   -15002.169            0   -13181.629   -291.34993    32099.865 
  750000    311.28572   -15069.087            0    -13147.44   -311.95705    32232.672 
  760000    301.80072   -15035.085            0   -13171.992    -458.7572     31805.68 
  770000    299.62793   -15005.368            0   -13155.688    1174.4358    31725.322 
  780000     294.3933   -14914.016            0    -13096.65   -302.31992    31708.058 
  790000     291.6042   -15077.786            0   -13277.638   -471.84608    32017.695 
  800000    308.43859   -14976.914            0   -13072.843   -95.839112    31775.735 
  810000    291.41531   -14931.849            0   -13132.868   -326.25739    31810.899 
  820000    301.33751   -15047.867            0   -13187.633   -624.40045    31509.913 
  830000     295.8742   -15110.334            0   -13283.826     202.1176    31784.116 
  840000    293.46721   -15075.031            0   -13263.383   -165.25409    32100.737 
  850000    291.17183    -15034.36            0   -13236.881    258.81466    31480.843 
  860000    300.54306   -15016.719            0   -13161.389   -284.14966    32237.757 
  870000    298.11206   -15066.783            0    -13226.46    308.42043    31668.048 
  880000    291.47124   -14979.538            0   -13180.211    563.30535    31236.223 
  890000    292.09316    -15050.74            0   -13247.573    219.31096    32102.974 
  900000    299.03929   -15035.235            0   -13189.189   -259.79201    31967.812 
  910000    303.24382   -15056.481            0   -13184.478    452.04491    31473.815 
  920000     295.7919   -15054.342            0   -13228.343   -232.95401    31736.368 
  930000    296.27808   -14995.449            0   -13166.448    292.75014     31357.29 
  940000    298.47253   -15075.389            0   -13232.841  -0.88208337    31754.611 
  950000     301.3363   -14975.322            0   -13115.095   -65.716602    32007.267 
  960000    292.11394   -14999.525            0   -13196.231   -18.778812    32143.213 
  970000    305.03811   -14953.474            0   -13070.396    335.90872    31926.644 
  980000    297.20809    -15058.38            0   -13223.638    715.32983    31546.944 
  990000    302.09848   -14980.931            0       -13116   -382.94127    31866.929 
 1000000    294.54253   -15111.438            0   -13293.151   -28.067877    32179.685 
 1010000    300.84824   -15009.631            0   -13152.417    -160.5364    31707.863 
 1020000    301.28522   -14958.769            0   -13098.857    845.40704    31686.656 
 1030000    283.74976   -15118.794            0   -13367.133   -55.998929    31617.876 
 1040000     301.2447   -14976.364            0   -13116.703   -670.67989    32394.358 
 1050000    302.07022   -14998.961            0   -13134.203   -569.14744    31781.818 
 1060000    297.26789   -15056.733            0   -13221.622   -182.94394    31790.381 
 1070000    293.45058   -14977.238            0   -13165.692   -573.16038    31972.247 
 1080000    295.23771   -14994.471            0   -13171.892     387.5221    31689.892 
 1090000    305.43285    -15087.62            0   -13202.105    62.118519    31560.198 
 1100000    304.85368   -15043.746            0   -13161.806   -387.04371     31523.22 
 1110000    300.76494   -15046.468            0   -13189.768    354.10814    31517.211 
 1120000    301.21884    -15073.81            0   -13214.308   -213.32932    31634.306 
 1130000    298.84885   -15027.792            0   -13182.921    -304.9035     31627.14 
 1140000    299.96993   -14974.111            0    -13122.32   -288.49738     31714.47 
 1150000    302.46746   -14951.626            0   -13084.417   -558.53341    31519.623 
 1160000    294.70676    -15052.66            0   -13233.359    -419.9306    31684.526 
 1170000    297.19722   -15094.571            0   -13259.896    362.32982    31781.033 
 1180000    300.62579    -14972.98            0    -13117.14    1059.8929    31530.501 
 1190000    292.33999   -15012.223            0   -13207.533    39.137167    32075.648 
 1200000    292.44627   -15099.462            0   -13294.116    645.93333    31438.543 
 1210000    288.92628   -15043.792            0   -13260.176    409.19766    31646.138 
 1220000    301.94669   -14988.935            0   -13124.941    482.45718    31579.472 
 1230000    293.01029   -15033.427            0   -13224.599   -100.53451    31976.344 
 1240000    298.93629   -15005.184            0   -13159.774   -309.84072    31999.519 
 1250000     302.4832    -14996.89            0   -13129.583   -1033.5622     32374.25 
 1260000    294.57502   -15020.856            0   -13202.369    44.567623    31857.689 
 1270000    303.09212   -15049.042            0   -13177.976   -105.67192    31572.326 
 1280000    300.28668   -14975.619            0   -13121.872    272.83518    31687.322 
 1290000    300.69414    -15213.35            0   -13357.088     38.25019    31979.663 
 1300000    297.68591   -14993.052            0    -13155.36    201.93287      31535.8 
 1310000    295.34202   -15060.548            0   -13237.325    413.04524    31604.521 
 1320000    298.85481   -15109.745            0   -13264.838     122.5485     31300.56 
 1330000    299.52178   -14932.954            0   -13083.929   -181.58445    31845.002 
 1340000    302.15929   -15093.727            0    -13228.42   -225.58193    31785.346 
 1350000    289.99234   -15024.905            0   -13234.708     247.8695    31820.712 
 1360000    300.00507   -15075.289            0   -13223.281    1139.4693    31389.579 
 1370000    298.74564   -15109.552            0   -13265.318   -149.80115    31681.328 
 1380000    299.54876   -14931.088            0   -13081.896    344.67203    32114.913 
 1390000    301.79357   -15046.832            0   -13183.783    218.17572    31236.592 
 1400000     300.9886   -15033.961            0    -13175.88   -370.38882    31685.559 
 1410000    299.85927   -14973.645            0   -13122.536   -451.17566    32305.362 
 1420000    300.10946   -15077.141            0   -13224.488   -258.64251    31736.971 
 1430000    297.06876   -15086.263            0   -13252.381   -246.93393     31899.92 
 1440000    298.49874   -14993.513            0   -13150.803    86.960412    31999.877 
 1450000    294.65049   -15068.791            0   -13249.838    319.07755    32017.282 
 1460000    291.09384   -15055.861            0   -13258.863     145.0079     31786.89 
 1470000    300.44561   -15050.729            0   -13196.001    294.90617    31883.943 
 1480000    290.65153   -15072.895            0   -13278.628   -696.54446    32161.702 
 1490000    301.37541   -14942.005            0   -13081.537    -148.4158    31926.771 
 1500000    303.17107   -15067.157            0   -13195.604    -459.7355    31426.697 
 1510000    298.62622   -14987.802            0   -13144.305    632.87358    31785.783 
 1520000    293.95559   -14994.038            0   -13179.374   -568.98931    32024.643 
 1530000    296.83903   -15104.002            0   -13271.538    1056.5728    31393.991 
 1540000    302.00672   -15034.881            0   -13170.516    260.89663    32046.902 
 1550000    296.47148   -14979.104            0   -13148.909   -219.56981     31954.07 
 1560000     300.7864   -15046.885            0   -13190.053    116.11059     31937.94 
 1570000    302.78921   -15051.663            0   -13182.468    256.26363    31780.644 
 1580000    302.91887   -15058.932            0   -13188.936    417.35759    31966.886 
 1590000    308.14919   -15213.368            0   -13311.083    518.09853    31250.838 
 1600000    293.86429   -14975.682            0   -13161.582    990.18362    31647.868 
 1610000    296.87967   -14965.829            0   -13133.114   -341.54404    31787.253 
 1620000    296.39516   -15067.073            0    -13237.35   -120.27313    31542.219 
 1630000    296.42446   -15056.406            0   -13226.501     307.6267    31786.915 
 1640000    300.42322   -15066.972            0   -13212.382   -944.61384    31840.733 
 1650000    302.99722   -15106.118            0   -13235.638    -910.5155     31885.36 
 1660000     296.9291   -15046.999            0   -13213.979   -265.67496    31603.485 
 1670000    300.38978   -15033.118            0   -13178.734    813.92544    31443.301 
 1680000    288.87097   -15102.503            0   -13319.228     415.5875    31539.353 
 1690000    292.54638    -15018.29            0   -13212.325   -624.50821    31746.902 
 1700000    302.71328   -14963.799            0   -13095.072     194.8403    31443.397 
 1710000    296.39655   -15039.715            0   -13209.983   -388.69862    31807.248 
 1720000    295.95697   -15136.003            0   -13308.985    57.886803    31539.396 
 1730000    292.17935   -15064.396            0   -13260.698    361.78284      31760.2 
 1740000    296.34876   -15002.695            0   -13173.258   -374.86952    32084.407 
 1750000    292.21747   -15038.218            0   -13234.284    76.746174    31781.061 
 1760000    299.20724   -15069.507            0   -13222.424    -29.10646    31942.664 
 1770000    305.06643   -15043.081            0   -13159.828   -590.98757    31871.866 
 1780000    296.87228   -15069.287            0   -13236.618    776.34387    31669.979 
 1790000    292.39885   -14936.736            0   -13131.683   -684.45981    32020.151 
 1800000    298.53129   -15057.924            0   -13215.013   -172.10949    31749.881 
 1810000    289.54984   -15049.666            0     -13262.2    509.11044    31271.064 
 1820000    294.38732   -15138.668            0    -13321.34   -118.27353    31399.396 
 1830000    295.30117   -15017.461            0   -13194.491   -127.27129    31630.429 
 1840000    301.79046   -15024.848            0   -13161.818   -187.28574    32065.553 
 1850000    296.61043   -15023.637            0   -13192.584   -144.87995     31876.14 
 1860000    302.46551   -15101.207            0   -13234.009    421.47056    31965.893 
 1870000    292.31257   -15062.188            0   -13257.667    414.39097    31760.401 
 1880000    303.38086   -15039.025            0   -13166.177   -82.882925    31872.077 
 1890000    286.43282   -14985.978            0   -13217.755   -1122.5299    31766.907 
 1900000    299.21774   -15007.819            0   -13160.671   -1085.9646    32217.568 
 1910000    297.73417   -15046.462            0   -13208.472    384.55667    31866.407 
 1920000    293.69551    -15017.94            0   -13204.882   -271.15099    31561.541 
 1930000     305.6694   -14984.806            0    -13097.83    -380.7772    32257.011 
 1940000    299.55497    -15156.82            0    -13307.59   -419.83492    32058.739 
 1950000    291.10487   -15156.597            0   -13359.531   -191.35157    31631.415 
 1960000    300.30139   -15034.645            0   -13180.807   -151.22952    31742.411 
 1970000    293.67126    -15117.35            0   -13304.441    737.19261    31460.683 
 1980000    297.78228    -14985.74            0   -13147.453   -10.068733    31749.193 
 1990000    291.07493   -15071.807            0   -13274.926    -400.3218    32188.323 
 2000000    292.12419   -15037.289            0   -13233.931    271.16202    31777.053 
 2010000     302.7044   -15042.508            0   -13173.836    599.46494    31464.567 
 2020000    299.41958   -15024.516            0   -13176.121    102.96542    31813.758 
 2030000    301.35658   -15065.726            0   -13205.374   -389.04253    31914.079 
 2040000    293.39179   -15052.886            0   -13241.702    223.52149    31864.457 
 2050000    296.03431   -15035.395            0   -13207.899    12.687836    31595.477 
 2060000    294.46883   -15015.919            0   -13198.087       109.61    31866.732 
 2070000    304.61894   -15043.095            0   -13162.604   -315.42922    31754.774 
 2080000    298.10566    -14934.41            0   -13094.127   -195.06499    31736.972 
 2090000     299.7974   -14972.548            0   -13121.821    1.3824393    31958.455 
 2100000    309.17339   -15121.856            0   -13213.249   -726.06191    31758.713 
 2110000    302.22925   -15039.885            0   -13174.146   -587.44594    31987.842 
 2120000    293.97929   -15038.761            0   -13223.952   -8.5345809    32057.208 
 2130000    304.58201   -15015.298            0   -13135.035   -119.02395    31965.984 
 2140000    295.38031   -14976.586            0   -13153.127    343.40262    31953.567 
 2150000     302.7633   -15050.999            0   -13181.963    815.26116    31444.606 
 2160000    297.68111   -14969.729            0   -13132.067    310.99603     31959.97 
 2170000     290.5597   -15062.463            0   -13268.763   -524.30973    31584.505 
 2180000    294.99486   -15030.482            0   -13209.403   -73.734012    31919.299 
 2190000    297.13881   -15048.607            0   -13214.293   -114.90257    31658.631 
 2200000    299.98612   -15017.079            0   -13165.187   -557.09692    32350.383 
 2210000    301.48608   -14984.013            0   -13122.862    -146.1545    32025.302 
 2220000    295.90843   -15042.416            0   -13215.697   -480.81501    31484.647 
 2230000    300.34057   -14965.423            0   -13111.344    276.92389    31746.531 
 2240000    289.01104   -15021.091            0   -13236.951   -550.55095    32161.817 
 2250000    299.02047   -15025.289            0   -13179.358   -147.92562    31748.511 
 2260000    292.20353   -15050.385            0   -13246.537    650.19238    31805.356 
 2270000    302.38815   -15005.747            0   -13139.028   -796.79381    31958.767 
 2280000    299.05703   -15125.421            0   -13279.265    80.788479    32118.021 
 2290000    295.09811    -14988.47            0   -13166.753   -459.68885    32102.607 
 2300000     294.8111   -15041.368            0   -13221.423    611.75872    31413.238 
 2310000    302.17838   -15001.349            0   -13135.924   -242.11541    32360.453 
 2320000    300.48304   -15064.955            0   -13209.996   -129.51537    31995.213 
 2330000    300.75907   -15085.776            0   -13229.113    20.448567     31716.74 
 2340000     305.7213   -15059.018            0   -13171.722   -156.74926    31960.601 
 2350000     296.6435   -15068.087            0    -13236.83    535.41947    31244.813 
 2360000     305.1818   -15051.899            0   -13167.933    421.35699    31763.152 
 2370000    286.98845   -15070.831            0   -13299.177   -509.50591     31698.02 
 2380000     294.4879       -14967            0    -13149.05   -595.17134    31859.876 
 2390000    306.40277   -15003.504            0   -13112.001   -804.87058    32251.284 
 2400000    295.16407   -15024.436            0   -13202.312   -266.85808    32051.397 
 2410000    301.59618   -15063.782            0   -13201.951    1073.7299    31708.982 
 2420000    298.87013    -15100.06            0   -13255.057    78.617207    32192.892 
 2430000    298.33853   -15037.006            0   -13195.286    485.33633    31966.325 
 2440000     292.8116   -15016.502            0   -13208.901    1123.2192    31568.967 
 2450000    302.09542   -15087.566            0   -13222.653    146.02327    31659.541 
 2460000    299.65744   -14924.814            0   -13074.952   -416.18202     32380.67 
 2470000    303.04342   -15042.638            0   -13171.873    89.879501     31398.41 
 2480000    297.88183   -15005.338            0   -13166.437   -594.09204    31883.778 
 2490000    291.98152   -15020.682            0   -13218.205   -49.422574    31919.472 
 2500000    283.64791   -15037.078            0   -13286.046   -686.78318    32087.462 
 2510000    308.67932   -14945.712            0   -13040.155    -771.6987    32115.688 
 2520000    295.28064   -15011.908            0   -13189.065   -126.22155    31424.468 
 2530000    300.07612   -14998.513            0   -13146.066    51.111945    31907.932 
 2540000    298.07685   -15093.602            0   -13253.497    757.93658    31738.608 
 2550000    297.01031   -15005.986            0   -13172.465   -672.09664    32304.972 
 2560000    296.60741   -15063.843            0   -13232.809    322.47957    31795.638 
 2570000    303.64221    -15025.07            0   -13150.608    392.37943    31436.317 
 2580000    292.09095   -15067.202            0   -13264.049   -36.073597    31887.629 
 2590000    296.94079   -15014.777            0   -13181.685   -293.93128    31746.691 
 2600000    299.87875    -15000.43            0   -13149.201    184.99819    31669.694 
 2610000    294.21754   -15109.454            0   -13293.174   -724.42623     31736.24 
 2620000    291.34128   -14982.955            0    -13184.43    101.07106    32234.622 
 2630000    297.46955   -15020.727            0   -13184.371   -480.69625    31673.478 
 2640000    295.42573   -15054.306            0   -13230.567    104.78484    31494.938 
 2650000    297.10881    -14981.89            0   -13147.761   -99.551885    31567.226 
 2660000     304.2021   -15000.431            0   -13122.513   -195.17625    31438.555 
 2670000    288.37007   -14980.248            0   -13200.066   -213.49706    31899.609 
 2680000    293.20258    -15010.11            0   -13200.095    466.63042    32035.297 
 2690000    298.57302   -15024.852            0   -13181.684    312.91489    31708.962 
 2700000    292.35654   -15007.415            0   -13202.623   -362.04981    32084.436 
 2710000    293.80811   -15041.622            0   -13227.869    481.44812    31463.351 
 2720000     298.3355    -15080.97            0   -13239.268    543.55762    31666.458 
 2730000    293.23766   -15094.191            0   -13283.959   -672.27744    31855.874 
 2740000    305.24958   -15093.778            0   -13209.394   -148.23894    31867.264 
 2750000    307.41282   -15103.449            0    -13205.71   -530.05761    32040.718 
 2760000    305.39857   -15004.073            0   -13118.769   -363.62777    31948.715 
 2770000    290.92387   -15035.856            0   -13239.908   -1.0339322    31733.509 
 2780000    291.56232   -15054.595            0   -13254.705   -72.151744    32046.637 
 2790000    300.67957   -15001.283            0   -13145.111   -284.81759     31962.92 
 2800000    297.40146   -15016.804            0   -13180.868   -174.70873    31873.105 
 2810000    310.83205   -14942.365            0   -13023.519    67.594774    31854.468 
 2820000    296.94435    -15106.88            0   -13273.766    299.07004    31939.584 
 2830000    289.56629   -14955.557            0   -13167.989    1.6810293    32094.155 
 2840000    299.42034   -15050.116            0   -13201.717     135.6377    31968.718 
 2850000    300.08475   -14959.224            0   -13106.724    238.49987    31942.727 
 2860000    291.32391   -15048.048            0   -13249.631   -618.63267    32408.255 
 2870000    309.01163   -15039.683            0   -13132.075    24.255945    31747.792 
 2880000    295.87153   -15036.279            0   -13209.788    67.298577     31653.23 
 2890000      302.086   -15018.559            0   -13153.705   -15.275044    31466.702 
 2900000    296.53753   -15016.663            0    -13186.06    477.44343     31781.25 
 2910000    305.87387   -15087.954            0   -13199.716   -288.47833    31513.568 
 2920000    294.42017   -15027.813            0   -13210.281    222.09589    32092.035 
 2930000     296.3381   -15131.194            0   -13301.823    -158.7407    31255.371 
 2940000    300.40969   -15050.149            0   -13195.642   -96.679646    32005.372 
 2950000    308.18033   -15037.084            0   -13134.608   -231.36233    31768.903 
 2960000    292.96953   -15062.961            0   -13254.385    340.69373    31615.341 
 2970000    297.63867   -14934.372            0   -13096.972    -338.9062    32011.343 
 2980000    297.01035   -15057.605            0   -13224.083    625.30926    31320.913 
 2990000    297.85107   -14967.848            0   -13129.136     621.8858    31390.661 
 3000000    295.04263    -14993.47            0   -13172.096    564.64155     31678.06 
 3010000    302.59065   -14950.292            0   -13082.322    88.888822    31709.172 
 3020000    304.67032   -15060.799            0   -13179.991    619.24835    31826.584 
 3030000    292.97181   -15010.101            0    -13201.51     368.8334    31792.281 
 3040000    297.55789   -15006.475            0   -13169.573   -268.17787    31724.836 
 3050000    292.58155   -15134.237            0   -13328.056   -428.24286    31595.194 
 3060000    298.23678    -15052.67            0   -13211.578    258.73382    31831.239 
 3070000    293.86011   -15077.242            0   -13263.168     540.3848    31560.692 
 3080000    303.13397   -15057.996            0   -13186.672    298.11371    31904.465 
 3090000     304.7362   -14962.651            0   -13081.436    566.77777    31666.531 
 3100000    297.93628   -15053.258            0    -13214.02   -259.02324    32059.293 
 3110000    300.33919    -15046.15            0   -13192.079    238.24919    31685.524 
 3120000    295.27125   -14928.896            0    -13106.11    197.91488    32209.841 
 3130000    295.10837   -15091.601            0   -13269.821   -435.58589    31794.853 
 3140000    293.14327   -14992.847            0   -13183.198   -296.11677    31780.337 
 3150000    300.53452   -14986.674            0   -13131.397    197.28784     31932.51 
 3160000    295.53199   -15019.785            0    -13195.39    139.86088    31643.483 
 3170000    298.23992   -15071.215            0   -13230.103    153.24575    31660.223 
 3180000     314.4907   -14961.017            0   -13019.585   -432.25147    32172.632 
 3190000    309.17923   -15073.478            0   -13164.835    920.95612    31913.974 
 3200000    296.13855   -15062.473            0   -13234.333   -283.28699    31524.751 
 3210000    290.78075   -15065.406            0   -13270.341    720.22189      31542.8 
 3220000    298.48718   -15035.524            0   -13192.886   -789.13762    32117.742 
 3230000    293.64557   -15055.267            0   -13242.517   -727.58462    31366.173 
 3240000    292.15807   -15081.608            0   -13278.041   -189.17251    32395.564 
 3250000    300.75411   -15088.596            0   -13231.963   -756.97187    31943.091 
 3260000    303.07786   -15034.634            0   -13163.656    187.91046    31702.818 
 3270000    292.18769   -15075.295            0   -13271.545    74.063565     31926.23 
 3280000    289.61677   -14955.732            0   -13167.853   -747.57648    31993.073 
 3290000    297.13354    -15048.71            0   -13214.428    684.30682    31998.801 
 3300000    296.20233   -14997.531            0   -13168.998   -908.71723    32001.781 
 3310000     302.3341   -14938.349            0   -13071.962    354.99666    32297.082 
 3320000     306.7545   -15035.634            0    -13141.96    567.03667    31670.359 
 3330000     295.4071   -15095.188            0   -13271.564   -124.13216    31596.267 
 3340000    300.69563   -15168.231            0    -13311.96   -525.94571    31627.721 
 3350000    298.85517   -14999.601            0   -13154.691    -363.3502    31675.259 
 3360000    286.77876   -15042.184            0   -13271.825    9.7347134    31744.601 
 3370000    305.17421    -15045.84            0   -13161.921   -405.47533    32016.505 
 3380000     291.9419   -14961.543            0   -13159.311    188.53245     31556.12 
 3390000    302.34896   -15088.059            0   -13221.581   -173.54408    31874.359 
 3400000    290.56636   -14921.723            0   -13127.982    126.44023    31950.301 
 3410000    305.60161    -14942.54            0   -13055.983    304.14559    32066.927 
 3420000    295.30729   -15086.787            0   -13263.779    -37.85449    31735.691 
 3430000    291.85304   -15023.192            0   -13221.508    375.20305    31530.163 
 3440000    293.38209   -15074.676            0   -13263.553    662.09982    31793.573 
 3450000    300.82869   -15078.118            0   -13221.025    884.78948     31487.72 
 3460000    288.45917   -15106.473            0   -13325.741    557.13219    31413.078 
 3470000      296.868   -15125.924            0   -13293.281   -376.96686    31703.092 
 3480000    289.75939   -15132.443            0   -13343.684    438.73847    31819.845 
 3490000    302.10832   -15010.724            0   -13145.732   -459.91214    32272.089 
 3500000    293.82335    -15015.59            0   -13201.743   -145.14907    32191.749 
 3510000    303.41806   -15064.471            0   -13191.393   -451.53925     32106.62 
 3520000    296.14874   -15072.694            0   -13244.491   -138.79425    31907.188 
 3530000    300.66999   -15120.936            0   -13264.822   -239.54954    31877.932 
 3540000    289.01314   -15024.633            0   -13240.481     169.5594    32169.591 
 3550000    307.61712   -15020.459            0   -13121.459    222.88047      31225.2 
 3560000    298.83794   -14980.253            0    -13135.45    753.38763     31715.67 
 3570000    282.16529   -15119.643            0   -13377.764    545.19149     31759.51 
 3580000    296.71094   -14933.102            0   -13101.429   -139.97608    32229.376 
 3590000    298.14005   -15064.892            0   -13224.396   -472.17693    31761.502 
 3600000    304.59398   -15016.763            0   -13136.426   -153.14686    31649.634 
 3610000     301.7336   -15100.067            0   -13237.388    800.47386     31268.28 
 3620000    304.14472   -14944.274            0    -13066.71   -286.78142    32091.748 
 3630000    297.34637   -15122.529            0   -13286.934    84.405766    31592.043 
 3640000    296.04379   -14905.539            0   -13077.984   -470.98801    32025.796 
 3650000    293.46886   -15111.545            0   -13299.886   -389.03431    32133.712 
 3660000    304.64553   -14974.918            0   -13094.262   -198.06172    31752.226 
 3670000    290.91702   -15094.872            0   -13298.967    484.07341    31629.581 
 3680000    296.83229   -15042.255            0   -13209.833   -18.437726    31373.826 
 3690000    292.75538   -14985.607            0   -13178.352   -45.240057    32119.506 
 3700000    293.52233   -14965.467            0   -13153.478    82.987283    31991.601 
 3710000    298.18142   -15030.633            0   -13189.882   -620.96049    31715.938 
 3720000    293.35436   -15104.632            0    -13293.68   -267.37042    32040.209 
 3730000    297.53038    -15038.55            0   -13201.819    356.97185    32171.666 
 3740000    300.86568   -15081.185            0   -13223.864   -248.76496    31687.222 
 3750000    304.38347   -14984.451            0   -13105.413    516.74501    31962.925 
 3760000    297.19906   -15030.703            0   -13196.016   -549.32625    31903.175 
 3770000    302.09781   -15046.981            0   -13182.053    975.15628    31779.271 
 3780000    297.65206   -14955.916            0   -13118.433     -161.508    31922.411 
 3790000    291.30733   -15015.096            0    -13216.78    559.09801    31931.278 
 3800000    291.46532   -15111.106            0   -13311.816   -500.98449    31700.203 
 3810000    293.26748   -15030.664            0   -13220.249    884.90668    31443.264 
 3820000    297.68639   -14980.986            0   -13143.291    -206.6087     31979.76 
 3830000    296.42492     -15052.4            0   -13222.492    171.60755    31909.642 
 3840000    298.37641    -14988.95            0   -13146.995    180.47616    32133.727 
 3850000    296.26579   -14859.857            0   -13030.932   -773.60108    32440.186 
 3860000     306.9486   -15092.534            0   -13197.661    363.10132    31777.839 
 3870000    296.16373   -15039.731            0   -13211.436   -228.40397    31745.256 
 3880000    298.97788   -14958.585            0   -13112.917   -102.31938    31839.394 
 3890000     293.9849   -15032.264            0    -13217.42   -496.15017    31995.669 
 3900000    303.04182   -15133.535            0    -13262.78    295.84514    31667.562 
 3910000    302.38899   -15005.247            0   -13138.522    -787.7784      32221.7 
 3920000    294.67093    -14983.48            0     -13164.4   -1285.3916     31948.53 
 3930000    294.08396   -14941.013            0   -13125.557   -249.61478    32084.805 
 3940000     305.6709   -15067.917            0   -13180.932   -624.59978    32450.122 
 3950000    303.69563    -14990.41            0   -13115.619     463.5731    31787.482 
 3960000    301.62156   -14959.205            0   -13097.217    -769.5281    32281.568 
 3970000    297.92784   -15028.102            0   -13188.916   -242.55337    32004.309 
 3980000    297.91679   -14973.106            0   -13133.989   -82.976698    31862.357 
 3990000    312.81903   -14996.747            0   -13065.635   -927.79849    31977.434 
 4000000    290.41848   -14988.433            0   -13195.605   -398.06228     32062.13 
 4010000    290.86013   -15043.169            0   -13247.614    560.86473     31389.87 
 4020000    308.29635   -15038.375            0   -13135.183   -236.29969    31688.574 
 4030000    297.14416   -14978.341            0   -13143.994   -678.38919    32197.753 
 4040000    303.99276   -15073.662            0   -13197.036   -597.95339    32193.802 
 4050000    305.90339   -15077.775            0   -13189.355   -793.78384    31789.097 
 4060000    284.89817   -14975.547            0   -13216.797      394.105    31378.073 
 4070000     296.8242   -15096.136            0   -13263.764   -179.62841    31649.851 
 4080000    304.34016   -14981.434            0   -13102.664    -254.4657     31833.52 
 4090000    296.33455   -15134.283            0   -13304.934    351.92929     31625.33 
 4100000    305.54033   -15069.192            0   -13183.013   -588.06389    31886.473 
 4110000    299.43893   -15077.481            0   -13228.967    143.62229    31667.574 
 4120000     293.7994   -15082.107            0   -13268.408   -416.67146    31923.089 
 4130000    296.88652   -15040.676            0   -13207.919    593.19571    31647.155 
 4140000    294.42581   -15030.462            0   -13212.895   -196.35054     31940.25 
 4150000     304.5681   -14947.827            0    -13067.65   -205.73925    31815.803 
 4160000    291.48017   -15036.884            0   -13237.502   -150.69119    31811.137 
 4170000    302.34016   -15098.257            0   -13231.833   -725.16973    31519.581 
 4180000    290.25128   -15080.516            0    -13288.72   -166.52569    31800.391 
 4190000    298.13438   -14957.685            0   -13117.225   -279.26363     32256.39 
 4200000    304.75712   -15031.932            0   -13150.587   -225.25644    32294.929 
 4210000    291.17446   -15048.474            0   -13250.979    290.71294    31776.042 
 4220000    303.27137   -15087.652            0   -13215.479    1178.1719    31636.053 
 4230000    296.50185   -14988.736            0   -13158.353    -143.8118    31739.929 
 4240000    302.38776    -15022.14            0   -13155.422   -289.61287    31967.745 
 4250000    305.28381   -15036.418            0   -13151.822    -206.5045    31550.964 
 4260000    292.52465   -15096.527            0   -13290.697    121.13718    31418.188 
 4270000    295.38855   -15028.891            0   -13205.381   -570.63394    31934.801 
 4280000    293.85903   -15011.708            0   -13197.641   -580.71796    31569.197 
 4290000    297.22009   -15005.206            0    -13170.39    1014.1182    31658.979 
 4300000    292.22701   -15014.638            0   -13210.645   -228.61636    31857.066 
 4310000    297.71299    -14985.84            0   -13147.981   -774.41651    31974.299 
 4320000    286.22024   -15017.122            0    -13250.21    284.57111    31510.132 
 4330000    303.53273   -14926.296            0    -13052.51   -725.89502     32031.47 
 4340000    289.66699    -15006.44            0   -13218.251   -362.80706    31819.727 
 4350000    295.26837   -15015.492            0   -13192.725    91.260441    31712.062 
 4360000    305.57962   -15043.715            0   -13157.294   -567.16996    32137.106 
 4370000    302.03073    -15104.04            0   -13239.527   -298.03796    31952.508 
 4380000    296.36076   -15021.195            0   -13191.683     23.13914     31973.94 
 4390000    295.21892   -14926.981            0   -13104.518    -531.4012    32121.407 
 4400000    291.81912    -15122.87            0   -13321.396    188.53905    31675.911 
 4410000    297.51448    -14966.82            0   -13130.187   -611.90374    32042.094 
 4420000    305.75401   -15046.913            0   -13159.415    743.78132     31238.57 
 4430000    301.79744    -15140.21            0   -13277.137    983.54014    31536.151 
 4440000     305.9478   -15030.515            0   -13141.821    920.44881    31363.797 
 4450000    296.89182   -14996.664            0   -13163.874    643.83827    31398.984 
 4460000    301.82459   -14995.259            0   -13132.018    861.45142    31787.281 
 4470000    294.94727   -15082.169            0   -13261.383   -116.31125    31817.171 
 4480000     296.3537   -15040.391            0   -13210.924    134.71889    31935.531 
 4490000    297.28271   -15058.131            0   -13222.928    220.99243    32085.125 
 4500000    301.10082   -15041.724            0   -13182.951   -113.51292    31697.925 
 4510000    304.63511   -14948.016            0   -13067.425    534.46438    31679.572 
 4520000      303.996    -15053.29            0   -13176.644   -594.73372    32079.339 
 4530000    297.97153   -15038.523            0   -13199.068   -159.68462     31984.75 
 4540000     288.5519   -15036.457            0   -13255.152    136.02519    31375.748 
 4550000    291.52514   -14949.232            0   -13149.572   -592.34467    31904.292 
 4560000    296.70898   -14999.414            0   -13167.754   -254.85631    31499.409 
 4570000    299.87104   -15059.098            0   -13207.916   -305.33778    31546.946 
 4580000    297.07765   -15052.501            0   -13218.564   -597.49259    31962.209 
 4590000    303.30996   -15017.916            0   -13145.506    183.41852    31792.824 
 4600000    298.35734   -15007.996            0   -13166.159    -503.7066    32318.164 
 4610000    296.31907   -15003.377            0   -13174.123    247.71562    31656.992 
 4620000    298.53344   -15018.582            0   -13175.658   -192.12159    31994.134 
 4630000    295.92856   -15037.664            0    -13210.82    684.18583    31625.258 
 4640000     292.7106    -15045.82            0   -13238.842   -50.481674     32006.16 
 4650000    302.88224   -14974.813            0   -13105.043   -156.31328    32007.875 
 4660000    292.50482   -15009.491            0   -13203.783   -731.84608    32059.974 
 4670000    296.36171   -15005.684            0   -13176.167   -64.700699    31888.319 
 4680000    304.55508   -14962.031            0   -13081.934    957.20207    31442.721 
 4690000    291.77139   -15015.907            0   -13214.727   -556.44798    32059.328 
 4700000    294.81966   -15099.678            0   -13279.681   -923.77779    31912.192 
 4710000    295.43457   -15106.165            0   -13282.371    -288.6422    31775.827 
 4720000    300.01044   -15105.812            0   -13253.771   -48.084547    31697.466 
 4730000    294.04488   -14973.427            0   -13158.212    231.62867    31410.605 
 4740000    302.96587   -15105.756            0   -13235.469    534.58826    31752.805 
 4750000    297.40449   -15006.056            0   -13170.101    417.44058    32036.512 
 4760000    295.97255   -15109.267            0   -13282.152    261.73675    31671.292 
 4770000    301.22283   -15010.176            0   -13150.649   -184.46351     32012.88 
 4780000    298.38594   -15058.587            0   -13216.574   -366.90983     32039.73 
 4790000    300.04074     -15063.6            0   -13211.371    207.94601    31578.643 
 4800000    294.89218   -14950.144            0   -13129.699    785.73818    31597.924 
 4810000    298.08884   -15035.898            0   -13195.719     367.6559     31834.54 
 4820000    294.16667   -15126.317            0    -13310.35   -266.06241    31581.609 
 4830000    300.65249    -15012.94            0   -13156.935    1019.1878    31379.561 
 4840000    296.12077   -15015.333            0   -13187.303    590.92886    31501.691 
 4850000    298.67391   -15054.645            0   -13210.854   -491.99049    32226.441 
 4860000    307.46422   -15051.643            0   -13153.587   -739.67825    31936.561 
 4870000    297.08728    -15019.79            0   -13185.794    236.36598    31420.547 
 4880000    304.25713   -15044.553            0   -13166.296    10.619391    32191.225 
 4890000    292.61871    -15116.53            0   -13310.119   -1036.6631    32123.753 
 4900000     298.1719    -15027.03            0   -13186.338    370.03647    31501.649 
 4910000    299.73215   -15050.494            0   -13200.171   -691.02751    32034.516 
 4920000    296.04396   -15036.852            0   -13209.297    423.12625    31546.811 
 4930000    301.06235   -14994.206            0   -13135.671   -795.54536    31949.678 
 4940000    303.55735   -15016.472            0   -13142.534     450.3329    31608.415 
 4950000     298.2706   -15102.452            0   -13261.151    296.98116    31574.296 
 4960000    293.32067   -14997.518            0   -13186.774   -1022.0113    32006.277 
 4970000    301.71392   -15001.105            0   -13138.548   -1405.3533    32107.987 
 4980000    299.21065   -15005.198            0   -13158.094   -147.22647    31983.052 
 4990000    303.30288   -15013.491            0   -13141.124   -445.16463    32002.765 
 5000000    306.61937   -15012.299            0   -13119.459    969.48616    31699.587 
Loop time of 5101.68 on 128 procs for 5000000 steps with 3072 atoms

Performance: 169.356 ns/day, 0.142 hours/ns, 980.069 timesteps/s
99.4% CPU use with 128 MPI tasks x no OpenMP threads

MPI task timing breakdown:
Section |  min time  |  avg time  |  max time  |%varavg| %total
---------------------------------------------------------------
Pair    | 1136.6     | 1369       | 1579.5     | 290.0 | 26.83
Bond    | 0.46582    | 0.54248    | 0.77796    |   7.4 |  0.01
Kspace  | 2080.6     | 2282.7     | 2495.7     | 219.7 | 44.74
Neigh   | 140.04     | 143.34     | 146.64     |  22.3 |  2.81
Comm    | 539.61     | 599.83     | 670.65     | 124.3 | 11.76
Output  | 0.043906   | 0.045187   | 0.046577   |   0.3 |  0.00
Modify  | 522.09     | 625.25     | 671.97     | 139.0 | 12.26
Other   |            | 80.99      |            |       |  1.59

Nlocal:    24 ave 34 max 18 min
Histogram: 7 20 10 40 18 18 10 1 2 2
Nghost:    2911.69 ave 2956 max 2865 min
Histogram: 2 6 16 13 28 17 20 16 5 5
Neighs:    9083.12 ave 14122 max 5795 min
Histogram: 5 8 16 45 21 20 10 2 0 1

Total # of neighbors = 1162639
Ave neighs/atom = 378.463
Ave special neighs/atom = 1.95312
Neighbor list builds = 437215
Dangerous builds = 0
reset_timestep 0

#################### 2) Obtaining average volume in NPT ######################
# Getting the average volume of the system
variable Volume equal vol
fix VoluAve all ave/time 1 ${Npnpt} ${Npnpt} v_Volume file volume.dat
fix VoluAve all ave/time 1 5000000 ${Npnpt} v_Volume file volume.dat
fix VoluAve all ave/time 1 5000000 5000000 v_Volume file volume.dat


# Thermo style for outputing system properties to the log file
thermo_style custom density
thermo_modify flush yes

variable Dens equal density
fix DensAve all ave/time 1 ${NBR} ${NBR} v_Dens file density.dat
fix DensAve all ave/time 1 100000 ${NBR} v_Dens file density.dat
fix DensAve all ave/time 1 100000 100000 v_Dens file density.dat

run ${Npnpt}
run 5000000
PPPM initialization ...
  extracting TIP4P info from pair style
  using 12-bit tables for long-range coulomb (../kspace.cpp:321)
  G vector (1/distance) = 0.311289
  grid = 30 30 30
  stencil order = 5
  estimated absolute RMS force accuracy = 0.00353544
  estimated relative force accuracy = 1.06469e-05
  using double precision FFTs
  3d grid and FFT values/proc = 2475 256
Per MPI rank memory allocation (min/avg/max) = 8.201 | 8.212 | 8.219 Mbytes
Density 
   1.0842945 
   1.0754184 
   1.0909711 
   1.0802286 
   1.0821136 
   1.0829666 
   1.0745063 
   1.0826956 
   1.0925642 
   1.0807411 
   1.0812794 
   1.0788436 
   1.0912364 
   1.0691433 
   1.0968626 
   1.0897257 
      1.0816 
   1.0741766 
   1.0859235 
   1.0748225 
   1.0820041 
   1.0988801 
   1.0786302 
   1.0802554 
   1.0682139 
   1.0825619 
   1.0760312 
   1.0768484 
   1.0892581 
   1.0963791 
   1.0764616 
   1.0666869 
   1.0721127 
   1.0693488 
   1.0832434 
   1.0671483 
   1.0716672 
   1.0881044 
   1.0840959 
   1.0886892 
   1.0679659 
   1.0734983 
   1.0801599 
   1.0722608 
   1.0807385 
   1.0766272 
   1.0844103 
   1.1001424 
   1.0815725 
   1.0813538 
   1.0749569 
   1.0796409 
   1.0796957 
   1.0780022 
   1.0848456 
   1.0718666 
   1.0812983 
   1.0801022 
    1.083248 
   1.0906583 
   1.0765075 
   1.0858165 
   1.0823936 
   1.0726904 
   1.0842204 
    1.080141 
   1.0789843 
   1.0851297 
   1.0941761 
   1.0890092 
   1.0764009 
   1.0799885 
   1.0896994 
   1.0871486 
   1.0769424 
   1.0803937 
   1.0866892 
   1.0838509 
   1.0578277 
   1.0770051 
   1.0825096 
   1.1016645 
   1.0950837 
   1.0876608 
   1.0833023 
   1.0762273 
   1.0934887 
   1.0769637 
   1.0731055 
   1.0810274 
   1.0973669 
   1.0759736 
   1.0924813 
   1.0718142 
   1.0611301 
   1.0913194 
   1.0776385 
   1.0775814 
   1.0828459 
   1.1007311 
   1.0667829 
   1.0796114 
   1.0886525 
   1.0815342 
   1.0782101 
   1.0799039 
   1.0826566 
   1.0765375 
   1.0689126 
   1.0829502 
   1.0701859 
   1.0728346 
   1.0828378 
   1.0711038 
   1.0912708 
   1.0747937 
    1.087976 
   1.0765727 
   1.0676974 
   1.0834582 
   1.0761017 
   1.0816826 
   1.0874908 
   1.0838236 
   1.0951334 
   1.0882237 
   1.0957821 
   1.0851974 
   1.0819232 
    1.072657 
   1.0904245 
   1.0776826 
   1.0955482 
   1.0580048 
   1.0932929 
   1.0857967 
   1.0895555 
   1.0807253 
   1.0873507 
   1.0837133 
   1.0778797 
   1.0787448 
   1.0908104 
   1.0749909 
   1.0826361 
   1.0762608 
    1.064848 
   1.0693405 
     1.05807 
   1.0767622 
   1.0887414 
   1.0765965 
   1.0840515 
   1.0697613 
   1.0746469 
   1.0751767 
   1.0857713 
   1.0907022 
   1.0714599 
   1.0802061 
   1.0897462 
   1.0678337 
   1.0779265 
   1.0721401 
     1.08308 
   1.0769333 
   1.0879636 
   1.0938248 
   1.0724098 
   1.0943109 
   1.0814988 
   1.0822153 
   1.0735958 
   1.0919967 
   1.0798648 
   1.0789654 
   1.0805673 
   1.0764519 
   1.0682216 
   1.0833681 
   1.0672192 
   1.0856325 
   1.0862645 
   1.0770528 
   1.0791073 
   1.0861646 
   1.0879105 
   1.0848353 
   1.0835279 
   1.0798813 
   1.0748614 
   1.0851207 
   1.0677323 
   1.0801338 
   1.0839191 
   1.0791545 
   1.0913505 
   1.0873612 
   1.0758986 
   1.0709895 
   1.0775656 
   1.0811945 
   1.0820451 
   1.0667732 
   1.0828127 
   1.0769739 
   1.0706948 
   1.0874572 
   1.0946634 
   1.0809811 
   1.0792641 
   1.0906011 
    1.075548 
   1.0897995 
   1.0746243 
   1.0700978 
    1.085259 
   1.0727251 
   1.0729094 
   1.0776961 
   1.0730353 
   1.0722581 
    1.084092 
   1.0815311 
   1.0820828 
   1.0899182 
   1.0843003 
   1.0852798 
   1.0869146 
   1.0805943 
   1.0673818 
   1.0819862 
   1.0873231 
    1.083847 
   1.0839105 
   1.0991283 
   1.0750111 
   1.0860137 
   1.0636052 
   1.0792809 
   1.0940096 
   1.0832106 
   1.1040863 
   1.0752821 
   1.0701375 
    1.070289 
   1.0826869 
   1.0697552 
   1.0902646 
   1.0867804 
   1.0617991 
   1.0779702 
    1.075023 
   1.0759873 
   1.0806315 
   1.0783469 
    1.087459 
   1.0878733 
   1.0878309 
   1.0833767 
   1.0827769 
    1.090422 
   1.0748572 
   1.0689589 
   1.0848377 
   1.0912738 
   1.0865833 
   1.0806779 
   1.0808268 
    1.069474 
   1.0792187 
   1.0876797 
    1.082475 
   1.0876402 
   1.0746593 
   1.0799956 
   1.0783388 
   1.0838576 
   1.0862364 
   1.0838342 
   1.0804138 
   1.0717425 
    1.070906 
   1.0866313 
   1.0674712 
   1.0794299 
   1.1001248 
   1.0886554 
   1.0827681 
   1.0776652 
   1.0839569 
   1.0842462 
   1.0722839 
   1.0781503 
   1.0658863 
   1.0760104 
   1.0803296 
   1.0679361 
   1.0595367 
    1.089702 
   1.0985159 
   1.0738323 
   1.0766988 
   1.0670152 
     1.07304 
   1.0782179 
   1.0840605 
   1.0714175 
   1.0820203 
    1.090049 
    1.077418 
   1.0992328 
   1.0802433 
   1.0723698 
   1.0790205 
   1.0766304 
   1.0855651 
    1.076215 
   1.0751994 
   1.0791836 
   1.0674582 
   1.0890635 
   1.0837823 
   1.0776724 
   1.0836489 
     1.07584 
   1.0840893 
   1.0898856 
   1.0814595 
   1.0794692 
   1.0719503 
   1.0716142 
   1.0797815 
   1.0705119 
   1.0766795 
   1.0825236 
   1.0849135 
   1.0769358 
   1.0847812 
   1.0749423 
    1.075641 
   1.0851195 
   1.0640242 
   1.0828112 
   1.0659092 
    1.091033 
    1.094062 
   1.0790726 
   1.0832131 
   1.0793851 
   1.0798104 
    1.081397 
   1.0701464 
   1.0839172 
   1.0730078 
      1.0786 
   1.0798546 
   1.0768653 
   1.0872673 
   1.0747796 
   1.0803617 
   1.0819178 
   1.0898686 
   1.0715066 
   1.0657004 
   1.0872295 
   1.0806072 
   1.0807188 
   1.0900639 
   1.0960998 
    1.082259 
   1.0922624 
   1.0824182 
    1.084486 
   1.0677376 
   1.0789948 
    1.080325 
   1.0651051 
   1.0651575 
   1.0903275 
   1.0680038 
   1.0863636 
   1.0901105 
   1.0739492 
   1.0774469 
   1.0863177 
   1.0842619 
   1.0767159 
   1.0984442 
   1.0870299 
   1.0770521 
   1.0801698 
   1.0837664 
   1.0731213 
   1.0727549 
   1.0772057 
   1.0744937 
   1.0671257 
   1.0855316 
   1.0829407 
    1.076198 
   1.0732781 
   1.0823898 
   1.0787075 
   1.0693114 
   1.0865792 
    1.085372 
   1.0755952 
   1.0801416 
   1.0638437 
   1.0722477 
    1.077876 
   1.0923674 
   1.0882155 
    1.082334 
   1.0897027 
   1.0808011 
   1.0864702 
   1.0796022 
    1.078028 
   1.0797128 
   1.0764562 
   1.0918261 
   1.0947498 
   1.0942444 
   1.0867772 
   1.0832469 
   1.0742848 
   1.0910352 
   1.0848155 
   1.0852522 
    1.083974 
   1.0812255 
   1.0855646 
   1.0825947 
   1.0846914 
   1.0987349 
   1.0928256 
   1.0699925 
   1.0816314 
   1.0826035 
   1.0804513 
   1.0675555 
   1.0627013 
   1.0782264 
   1.0760022 
    1.093927 
   1.0657558 
   1.0895318 
   1.0771883 
   1.0881683 
   1.0827587 
   1.0839927 
   1.0762462 
   1.0805077 
   1.0890878 
   1.0862882 
   1.0880382 
   1.0729333 
   1.0752912 
   1.0880494 
   1.0794534 
   1.0795442 
   1.0937788 
   1.0952727 
   1.0839609 
   1.0807524 
   1.0891525 
   1.0706772 
   1.0838043 
   1.0797182 
   1.0823855 
   1.0747952 
    1.072694 
   1.0718782 
   1.0821525 
   1.0871687 
   1.0825485 
   1.0770126 
   1.0780449 
    1.063075 
   1.0884395 
   1.0947375 
    1.096408 
   1.0819472 
   1.0871531 
   1.0859135 
   1.0788555 
   1.0883382 
   1.0929708 
   1.0835639 
   1.0810214 
   1.0786182 
   1.0908715 
   1.0699544 
   1.0750464 
   1.0683008 
   1.0801647 
   1.0746322 
   1.0770185 
   1.0780682 
Loop time of 5183.19 on 128 procs for 5000000 steps with 3072 atoms

Performance: 166.693 ns/day, 0.144 hours/ns, 964.657 timesteps/s
99.4% CPU use with 128 MPI tasks x no OpenMP threads

MPI task timing breakdown:
Section |  min time  |  avg time  |  max time  |%varavg| %total
---------------------------------------------------------------
Pair    | 1133.7     | 1364.6     | 1563.4     | 289.6 | 26.33
Bond    | 0.43878    | 0.54086    | 0.75229    |   7.8 |  0.01
Kspace  | 2099       | 2303.1     | 2512.1     | 217.7 | 44.43
Neigh   | 140.13     | 143.74     | 148.2      |  25.5 |  2.77
Comm    | 540.08     | 603.78     | 676.57     | 131.3 | 11.65
Output  | 0.017422   | 0.02218    | 0.040761   |   1.9 |  0.00
Modify  | 582.9      | 685.49     | 733.4      | 132.2 | 13.23
Other   |            | 81.89      |            |       |  1.58

Nlocal:    24 ave 34 max 15 min
Histogram: 3 5 6 30 29 26 15 10 3 1
Nghost:    2886.26 ave 2937 max 2846 min
Histogram: 5 8 14 23 30 28 10 7 1 2
Neighs:    9022.84 ave 13016 max 5359 min
Histogram: 3 2 14 26 28 27 10 10 4 4

Total # of neighbors = 1154924
Ave neighs/atom = 375.952
Ave special neighs/atom = 1.95312
Neighbor list builds = 437305
Dangerous builds = 0
reset_timestep 0

#################### 3) Initializing the NVT ensemble ####################
# scaling the size of the system to the average volume
variable sidesize equal (f_VoluAve^(1.0/3.0))    # get the volume
variable xlow equal xlo
variable ylow equal ylo
variable zlow equal zlo
variable xhig equal (xlo+${sidesize})
variable xhig equal (xlo+31.6829166120736)
variable yhig equal (ylo+${sidesize})
variable yhig equal (ylo+31.6829166120736)
variable zhig equal (zlo+${sidesize})
variable zhig equal (zlo+31.6829166120736)
change_box all x final ${xlow} ${xhig} y final ${ylow} ${yhig} z final ${zlow} ${zhig}
change_box all x final 0.594105933759256 ${xhig} y final ${ylow} ${yhig} z final ${zlow} ${zhig}
change_box all x final 0.594105933759256 32.2770225458329 y final ${ylow} ${yhig} z final ${zlow} ${zhig}
change_box all x final 0.594105933759256 32.2770225458329 y final 0.594105933759256 ${yhig} z final ${zlow} ${zhig}
change_box all x final 0.594105933759256 32.2770225458329 y final 0.594105933759256 32.2770225458329 z final ${zlow} ${zhig}
change_box all x final 0.594105933759256 32.2770225458329 y final 0.594105933759256 32.2770225458329 z final 0.594105933759256 ${zhig}
change_box all x final 0.594105933759256 32.2770225458329 y final 0.594105933759256 32.2770225458329 z final 0.594105933759256 32.2770225458329
  orthogonal box = (0.594106 0.594106 0.594106) to (32.277 32.3033 32.3033)
  orthogonal box = (0.594106 0.594106 0.594106) to (32.277 32.277 32.3033)
  orthogonal box = (0.594106 0.594106 0.594106) to (32.277 32.277 32.277)
unfix DensAve
unfix VoluAve

# changing the ensemble to NVT
unfix integrate
fix integrate all nvt temp ${Temp} ${Temp} 100.0
fix integrate all nvt temp 298 ${Temp} 100.0
fix integrate all nvt temp 298 298 100.0


# Initializing the whole system with very small timesteps in the NVT ensemble
timestep 0.001
run ${Ninvtpre}
run 10000
PPPM initialization ...
  extracting TIP4P info from pair style
  using 12-bit tables for long-range coulomb (../kspace.cpp:321)
  G vector (1/distance) = 0.31121
  grid = 30 30 30
  stencil order = 5
  estimated absolute RMS force accuracy = 0.00354694
  estimated relative force accuracy = 1.06815e-05
  using double precision FFTs
  3d grid and FFT values/proc = 2475 256
Per MPI rank memory allocation (min/avg/max) = 8.201 | 8.212 | 8.219 Mbytes
Density 
   1.0807504 
   1.0807504 
Loop time of 7.64631 on 128 procs for 10000 steps with 3072 atoms

Performance: 0.113 ns/day, 212.398 hours/ns, 1307.820 timesteps/s
99.4% CPU use with 128 MPI tasks x no OpenMP threads

MPI task timing breakdown:
Section |  min time  |  avg time  |  max time  |%varavg| %total
---------------------------------------------------------------
Pair    | 1.1745     | 2.0315     | 2.9298     |  25.8 | 26.57
Bond    | 0.00068917 | 0.00079639 | 0.0013663  |   0.0 |  0.01
Kspace  | 2.8837     | 3.7549     | 4.5786     |  18.6 | 49.11
Neigh   | 0          | 0          | 0          |   0.0 |  0.00
Comm    | 0.96873    | 1.0631     | 1.1218     |   3.7 | 13.90
Output  | 2.8624e-05 | 4.0676e-05 | 9.4186e-05 |   0.0 |  0.00
Modify  | 0.61585    | 0.69018    | 0.74965    |   3.7 |  9.03
Other   |            | 0.1058     |            |       |  1.38

Nlocal:    24 ave 35 max 15 min
Histogram: 3 4 17 15 33 29 13 8 5 1
Nghost:    2893.3 ave 2946 max 2861 min
Histogram: 5 19 23 25 24 16 9 4 1 2
Neighs:    9048.72 ave 13089 max 5600 min
Histogram: 5 3 22 22 24 21 14 10 3 4

Total # of neighbors = 1158236
Ave neighs/atom = 377.03
Ave special neighs/atom = 1.95312
Neighbor list builds = 0
Dangerous builds = 0
timestep 0.01
run ${Ninvtpre}
run 10000
PPPM initialization ...
  extracting TIP4P info from pair style
  using 12-bit tables for long-range coulomb (../kspace.cpp:321)
  G vector (1/distance) = 0.31121
  grid = 30 30 30
  stencil order = 5
  estimated absolute RMS force accuracy = 0.00354694
  estimated relative force accuracy = 1.06815e-05
  using double precision FFTs
  3d grid and FFT values/proc = 2475 256
Per MPI rank memory allocation (min/avg/max) = 8.201 | 8.212 | 8.219 Mbytes
Density 
   1.0807504 
   1.0807504 
Loop time of 7.69251 on 128 procs for 10000 steps with 3072 atoms

Performance: 1.123 ns/day, 21.368 hours/ns, 1299.966 timesteps/s
99.4% CPU use with 128 MPI tasks x no OpenMP threads

MPI task timing breakdown:
Section |  min time  |  avg time  |  max time  |%varavg| %total
---------------------------------------------------------------
Pair    | 1.1799     | 2.034      | 3.0086     |  24.5 | 26.44
Bond    | 0.0006949  | 0.00079954 | 0.0012517  |   0.0 |  0.01
Kspace  | 2.8638     | 3.804      | 4.6221     |  17.6 | 49.45
Neigh   | 0.0013352  | 0.0013526  | 0.0013777  |   0.0 |  0.02
Comm    | 0.94344    | 1.0467     | 1.1071     |   3.7 | 13.61
Output  | 3.0427e-05 | 4.2986e-05 | 8.2635e-05 |   0.0 |  0.00
Modify  | 0.62716    | 0.69973    | 0.75946    |   3.8 |  9.10
Other   |            | 0.1059     |            |       |  1.38

Nlocal:    24 ave 34 max 15 min
Histogram: 1 2 18 22 27 33 14 7 1 3
Nghost:    2890.03 ave 2934 max 2862 min
Histogram: 10 14 25 19 20 22 9 5 1 3
Neighs:    9046.84 ave 13300 max 5515 min
Histogram: 2 10 13 31 25 23 8 10 2 4

Total # of neighbors = 1157996
Ave neighs/atom = 376.952
Ave special neighs/atom = 1.95312
Neighbor list builds = 4
Dangerous builds = 0
timestep 0.1
run ${Ninvtpre}
run 10000
PPPM initialization ...
  extracting TIP4P info from pair style
  using 12-bit tables for long-range coulomb (../kspace.cpp:321)
  G vector (1/distance) = 0.31121
  grid = 30 30 30
  stencil order = 5
  estimated absolute RMS force accuracy = 0.00354694
  estimated relative force accuracy = 1.06815e-05
  using double precision FFTs
  3d grid and FFT values/proc = 2475 256
Per MPI rank memory allocation (min/avg/max) = 8.201 | 8.212 | 8.219 Mbytes
Density 
   1.0807504 
   1.0807504 
Loop time of 7.81544 on 128 procs for 10000 steps with 3072 atoms

Performance: 11.055 ns/day, 2.171 hours/ns, 1279.518 timesteps/s
99.4% CPU use with 128 MPI tasks x no OpenMP threads

MPI task timing breakdown:
Section |  min time  |  avg time  |  max time  |%varavg| %total
---------------------------------------------------------------
Pair    | 1.5285     | 2.0423     | 2.6703     |  17.4 | 26.13
Bond    | 0.00069619 | 0.00079882 | 0.0011149  |   0.0 |  0.01
Kspace  | 3.2415     | 3.8385     | 4.3338     |  12.6 | 49.11
Neigh   | 0.012748   | 0.012885   | 0.013023   |   0.1 |  0.16
[...]
98160000    293.46566     297.8257      462.565   -43.952026   -15012.578    1811.6391   -13200.939 
98170000    306.75883    297.84902    85.266144    16.219163   -15000.191    1893.7013   -13106.489 
98180000    300.22908    297.97809   -565.98589    95.010351   -15053.482    1853.3914    -13200.09 
98190000    286.43945    298.15592   -245.63044    16.074887   -14964.667    1768.2645   -13196.402 
98200000    291.62581    298.42444     275.0165    42.095077   -15148.934    1800.2813   -13348.652 
98210000    294.46222    297.86505    602.14732    19.822533   -15076.735    1817.7911   -13258.944 
98220000    295.40273    298.00312    -459.3143    64.297022   -15081.119    1823.5971   -13257.522 
98230000    295.69274    297.58828   -372.70805   -36.315886   -15096.102    1825.3874   -13270.715 
98240000    300.64271     297.6479    281.76784   -70.581131   -15128.728    1855.9449   -13272.783 
98250000    297.77581    298.41479    179.00417   -13.354759   -15076.573    1838.2468   -13238.327 
98260000    302.73765    297.56826    32.404358   -53.483509   -15058.563    1868.8775   -13189.685 
98270000    291.83647     298.2325    486.61726     55.42973   -15008.036    1801.5817   -13206.454 
98280000    308.38671    298.16896    36.683539   -4.8798909   -15056.532    1903.7506   -13152.781 
98290000    305.15812    298.45205    118.85425     -15.5865   -14992.058    1883.8197   -13108.239 
98300000    304.69041    297.35692    -179.2535    70.836865   -15127.783    1880.9324    -13246.85 
98310000    297.27257    298.20962   -295.55725    72.323859   -15070.022    1835.1402   -13234.882 
98320000    297.19979    298.29969    197.09456    101.33285   -15047.526    1834.6909   -13212.835 
98330000    285.41803    298.06965    157.75819   -53.048798   -15043.833    1761.9591   -13281.874 
98340000    297.65395    297.73291   -169.95306     69.33946   -15002.234    1837.4945    -13164.74 
98350000    287.39104    297.67914   -566.78555    9.4032983   -15029.973    1774.1389   -13255.834 
98360000    286.49779    297.79326    83.393269    131.74396   -15117.035    1768.6246    -13348.41 
98370000    290.67982    298.09988   -373.41281    40.114646   -15077.858    1794.4414   -13283.417 
98380000    290.58859    297.95262   -661.96035    19.755335   -15111.027    1793.8782   -13317.149 
98390000    297.64922    298.26249   -925.63021     65.88984   -15049.056    1837.4653    -13211.59 
98400000    284.16375    298.06844   -226.15555    15.290144   -15102.129    1754.2161   -13347.913 
98410000    297.60386    297.88723   -206.58604    10.799912   -15004.315    1837.1853    -13167.13 
98420000    303.71392    298.21963   -386.74121    69.913917   -15091.062    1874.9043   -13216.158 
98430000    311.86491    298.21133    956.48115    52.081643   -15024.222    1925.2224       -13099 
98440000    306.66282    297.90577   -131.70877    1.0622798   -15036.129    1893.1086    -13143.02 
98450000    303.29376    297.86142    64.747503   -15.456016   -15054.701    1872.3105   -13182.391 
98460000    300.46258    297.73745   -555.72572    15.074755   -15017.508    1854.8329   -13162.675 
98470000     295.3273    297.96137   -135.60489    6.1207035   -14979.871    1823.1315   -13156.739 
98480000     296.9724    298.11846    296.02155    38.919064   -15028.512    1833.2871   -13195.225 
98490000    296.98753    297.83325     336.4379    56.279319   -14993.217    1833.3805   -13159.836 
98500000    303.25174    298.28292   -271.53919     9.717588   -15015.407    1872.0511   -13143.356 
98510000     300.5949    297.92562    931.20489    71.654537   -15051.822    1855.6498   -13196.173 
98520000    294.69982    297.54875    266.48707   -1.8252016   -15043.199    1819.2579   -13223.941 
98530000    298.80197    298.00127   -122.65779   -54.854149   -15019.794    1844.5816   -13175.213 
98540000    305.42261    298.30822   -547.39663    -116.2068   -14920.293    1885.4524   -13034.841 
98550000    297.42727    297.73548    439.51362   -6.9665326   -14978.476    1836.0952    -13142.38 
98560000    291.74469    297.93002   -1100.8387   -3.6305734   -15065.602    1801.0151   -13264.587 
98570000    307.50733    297.67692   -214.57861    41.542515   -14999.874     1898.322   -13101.552 
98580000    304.38428    297.87429   -100.89872    64.024552   -15087.127    1879.0426   -13208.084 
98590000    296.87943    298.21065     254.9605    27.741911    -15140.35    1832.7132   -13307.637 
98600000    305.38704    297.68096    781.93032   -17.767223   -15041.896    1885.2329   -13156.663 
98610000    311.15247    298.43787   -879.42473   -19.640787   -15073.234    1920.8243   -13152.409 
98620000    290.65231     298.1641     80.10899   -68.197012   -14992.643    1794.2716   -13198.372 
98630000    309.68149    298.04836    360.65959   -9.8911162   -15081.511    1911.7436   -13169.767 
98640000    293.68477    297.71401   -227.50493     109.7138    -15066.42    1812.9917   -13253.428 
98650000    300.34357    298.26289   -165.32774   -14.329727   -15024.649    1854.0982   -13170.551 
98660000    293.61818    298.27875    414.18032    29.489343   -15034.542    1812.5807   -13221.962 
98670000    302.04769    298.51875   -2.2471856   -86.096347   -15055.504    1864.6182   -13190.886 
98680000     294.6267    298.26397    100.23865    53.131608   -15034.202    1818.8065   -13215.395 
98690000    302.15262    298.24048    240.62325    55.378816   -14980.251     1865.266   -13114.985 
98700000    304.82246    298.37161    387.88268    19.442697   -15038.985    1881.7476   -13157.238 
98710000    296.91874    298.14926    36.454798   -51.161805   -14998.701    1832.9558   -13165.745 
98720000    297.13488    297.67144   -256.12303   -10.995703   -14966.807    1834.2902   -13132.517 
98730000    299.15243    297.70003   -427.70939   -34.019508   -15011.646     1846.745   -13164.901 
98740000    297.78284    298.41007   -128.83821    29.175544    -15062.46    1838.2902    -13224.17 
98750000    296.55144    297.92312    28.989579   -18.986067   -15053.846    1830.6885   -13223.158 
98760000    303.19068     297.4844    404.11867    3.7046311   -14992.801    1871.6742   -13121.127 
98770000    301.16605    297.70106   -325.77019    51.977938   -15111.106    1859.1756    -13251.93 
98780000    293.57163    298.10801   -617.62596   -36.646365   -15132.516    1812.2933   -13320.222 
98790000    302.26406    297.63767    205.40554   -42.912965   -14988.284    1865.9539    -13122.33 
98800000     299.8421    298.10877    189.35663   0.81163019   -15139.843    1851.0025    -13288.84 
98810000    297.83848    298.27221   -220.99796   -103.29988    -15012.72    1838.6336   -13174.086 
98820000    305.72401     298.2973   -319.67946   -5.1858529   -15013.827    1887.3131   -13126.514 
98830000     292.5761    297.82178   -327.15085   -4.8998919   -15026.918    1806.1476   -13220.771 
98840000    297.93152    298.22373    223.62992    63.730995   -15025.078     1839.208    -13185.87 
98850000    295.04023    297.97716    255.33836   -29.763874   -15059.173    1821.3594   -13237.814 
98860000    293.41437     298.2061   -899.34455    61.210127   -15069.986    1811.3225   -13258.663 
98870000    300.99147    298.08985    292.87123    29.195434   -15029.823    1858.0979   -13171.725 
98880000     296.3727    297.69897   -51.865291   -8.1399378   -14986.759     1829.585   -13157.174 
98890000    300.84083    298.06127   -498.08775   -19.407022   -15043.171    1857.1679   -13186.003 
98900000    297.33453    298.00546    318.17289    10.746424   -15110.595    1835.5226   -13275.072 
98910000    304.14477    297.89718    622.38727    69.582554   -14967.908     1877.564   -13090.344 
98920000    302.87667    297.81561   -173.85593    28.761122   -14980.232    1869.7357   -13110.496 
98930000    298.13526    298.19302    332.81662   -59.677247   -14983.904    1840.4658   -13143.438 
98940000    295.59794    297.80114   -95.340689   -26.465393   -15005.587    1824.8022   -13180.785 
98950000    298.54139    298.23689    143.26217    1.0874587   -15036.471    1842.9729   -13193.498 
98960000    291.91783    298.45306   -345.24978   -97.608616    -15102.95     1802.084   -13300.866 
98970000    305.30321    297.64543    236.36177   -6.6780413   -15065.818    1884.7154   -13181.102 
98980000    299.47539    298.43583   -111.73274    108.43709   -15098.247    1848.7387   -13249.508 
98990000    310.13868    297.62232    156.87819   -93.438532   -15085.803    1914.5659   -13171.237 
99000000    288.74089    298.11793   -919.48667   -1.7821512   -14955.238    1782.4719   -13172.766 
99010000    297.57689    298.08222   -375.77853   -64.334737   -15064.728    1837.0188   -13227.709 
99020000    295.00775    297.37456   0.85206234    16.201118    -15018.05    1821.1589   -13196.891 
99030000    298.62998    297.78909   -331.22091    23.170929   -15055.639    1843.5198   -13212.119 
99040000    290.73755    298.14277   -685.36785   -88.796627   -15065.494    1794.7978   -13270.696 
99050000    294.10335    298.29799   -350.11496    88.584025   -15066.374    1815.5757   -13250.799 
99060000     298.1797    298.21418    143.66805    11.733987   -15032.705    1840.7401   -13191.965 
99070000    303.66998    298.14655    265.51294   -42.412167   -15032.071     1874.633   -13157.438 
99080000    300.61245    298.25628   -211.71225    78.705741   -15030.474    1855.7581   -13174.716 
99090000     300.1228    298.09869     137.0792   -90.710182   -15004.899    1852.7353   -13152.164 
99100000    299.75617    297.89358    45.607009   -77.382825   -15080.312    1850.4721    -13229.84 
99110000    297.68611    297.99086    -1137.551   -24.821416    -15083.19     1837.693   -13245.497 
99120000    303.96612    298.02094   -108.17791   -6.4222121   -15065.511    1876.4612    -13189.05 
99130000    298.55235    297.88408   -117.68515   -39.584238   -15046.299    1843.0406   -13203.258 
99140000    298.59883    297.90746    820.87771   -11.814724   -15061.105    1843.3275   -13217.777 
99150000    304.83366    298.47143    364.30058   -19.049614   -14976.316    1881.8167     -13094.5 
99160000    298.57727    297.43303    200.80759   -59.587375   -15042.965    1843.1944   -13199.771 
99170000    306.11298    298.19021    -105.7993   -29.428049   -15076.978    1889.7143   -13187.263 
99180000     296.3397    298.32773     -48.0634    17.107869    -15029.18    1829.3813   -13199.799 
99190000    299.43188     298.2968   -50.657487   -29.620533   -14992.126    1848.4701   -13143.656 
99200000    300.52916    298.47554   -30.880789    41.784271   -15082.615    1855.2439   -13227.371 
99210000    296.08458    297.85488   -637.20125   -55.132077   -15140.338    1827.8064   -13312.532 
99220000    303.66485    297.38117    256.34988   -12.287055   -15050.621    1874.6014    -13176.02 
99230000    288.08498    297.47806    66.821494   -53.419407   -15027.844    1778.4228   -13249.421 
99240000    293.67496     297.3984   -87.343901     18.09855    -15076.55    1812.9312   -13263.618 
99250000    299.55583    298.19397    252.44933    68.537681   -15095.163    1849.2353   -13245.928 
99260000    301.72152     297.6215    120.02635     33.59326   -15112.024    1862.6047    -13249.42 
99270000    299.44159    297.91562    225.68368   -20.575564   -15003.184    1848.5301   -13154.654 
99280000    293.60723    297.88245    628.88289   -27.987243   -15006.707    1812.5131   -13194.194 
99290000     289.2993    298.33886   -491.72214   -33.851483   -15009.674    1785.9191   -13223.755 
99300000    293.24354    298.21845   -134.88942   -6.1484247   -15004.316    1810.2679   -13194.048 
99310000    303.19947     297.6893   -297.26948   -23.712396   -15072.778    1871.7284    -13201.05 
99320000    300.85221    298.27873    349.26409    56.342112   -15013.301    1857.2382   -13156.063 
99330000    301.47053    298.06013   -28.191174   -40.727192   -15028.352    1861.0552   -13167.296 
99340000    297.65502    297.76229    403.95468    41.261879   -15048.694    1837.5011   -13211.193 
99350000    295.03386    297.68142    -656.3467   -6.4743931   -15068.236      1821.32   -13246.916 
99360000    292.33562    298.10463    202.72558    -29.66768   -15101.128    1804.6631   -13296.465 
99370000    304.50878    298.21346   -297.92766   -27.693356   -15123.499    1879.8111   -13243.688 
99380000      290.767    298.30405    169.57024   -13.289852     -14951.6    1794.9796    -13156.62 
99390000    298.40074    297.71105   -265.67018   -45.775804   -15012.765    1842.1046    -13170.66 
99400000     298.8007    298.27507   -87.905721   -35.640052   -15028.049    1844.5737   -13183.476 
99410000    302.80064    297.68512    539.56955   -8.1174838   -15011.952    1869.2664   -13142.686 
99420000    304.63745    297.68858   -169.98079   -15.470585   -15144.855    1880.6055   -13264.249 
99430000    293.75694    298.29326    116.29183    29.398984   -14970.133    1813.4372   -13156.696 
99440000    288.25585    298.11464    113.02826    22.960451   -14941.826    1779.4776   -13162.348 
99450000    301.31267    298.12183    650.81561   -108.81347    -14979.23    1860.0808    -13119.15 
99460000    299.73194    298.25158   -342.86137   -8.8942553   -15008.675    1850.3225   -13158.352 
99470000    301.82942    297.81641    7.4601204   -50.216623   -14957.101    1863.2708    -13093.83 
99480000    292.22812    298.27853   -66.493664   -45.956993   -15031.299    1803.9995   -13227.299 
99490000    292.42056    298.45336    375.36396   -52.022765   -14986.432    1805.1875   -13181.244 
99500000    296.18905    297.67784   -633.03491   -20.480522    -15070.04    1828.4513   -13241.589 
99510000    292.34098    297.78341    34.962311    70.407991   -15031.267    1804.6962    -13226.57 
99520000     302.6473    298.22228   -406.83616    122.58031   -15036.347    1868.3197   -13168.027 
99530000    292.75641    298.73567    880.44333    33.042399   -15101.025    1807.2607   -13293.764 
99540000    297.39789    298.03105   -655.99022    45.112247   -15030.721    1835.9138   -13194.807 
99550000    300.57127    298.30781    293.00868    3.6933323   -15026.947    1855.5039   -13171.443 
99560000    303.60822    298.61319    455.42755   -54.692765   -14988.796    1874.2518   -13114.544 
99570000    294.11302    297.87776   -419.58471     -61.9099   -15004.474    1815.6355   -13188.839 
99580000    297.18621    297.74454   -446.83523   -21.493941   -14985.147    1834.6071   -13150.539 
99590000    296.89071    298.28279   -356.34753    21.382625   -15046.929    1832.7829   -13214.146 
99600000    308.58886     298.2827    124.59029   -8.2738205   -15017.183    1904.9985   -13112.184 
99610000    301.06893    298.47278   -38.536249   -41.371071    -14962.47    1858.5761   -13103.894 
99620000    291.49247    298.18016   -346.93311    54.405544   -15073.212    1799.4581   -13273.754 
99630000     302.5083    297.57628    1140.3014   -48.405682   -14984.251    1867.4617   -13116.789 
99640000    300.46821    298.48764    250.57815    17.020305   -15031.212    1854.8676   -13176.344 
99650000    298.61144    297.84642    75.983061    70.170701   -15005.837    1843.4053   -13162.431 
99660000    298.55751    297.64509    33.035559    24.508956   -15077.757    1843.0724   -13234.685 
99670000     295.6996    298.13724     94.52371    64.521199   -15100.051    1825.4298   -13274.622 
99680000     281.1035    298.02143    746.24889   -13.102345    -15000.24    1735.3244   -13264.916 
99690000    300.12768     298.0418    216.08991   -49.789681   -15079.427    1852.7655   -13226.661 
99700000    301.59383    298.15544    55.001548    110.47023   -15050.492    1861.8164   -13188.676 
99710000    297.18224    297.84498   -13.502835    66.448384   -15003.192    1834.5825    -13168.61 
99720000    293.43441    297.97554   -453.05844   -52.973423   -15058.504    1811.4462   -13247.058 
99730000    295.48149    297.82779    51.255161    55.996694   -15044.229    1824.0833   -13220.146 
99740000    298.14125    298.10546   -37.927376    12.605629   -14977.351    1840.5028   -13136.848 
99750000    294.19989    297.69623    56.719235   -78.717843   -15093.037    1816.1717   -13276.865 
99760000    301.05884    298.19611    396.85766   -1.0237475   -15033.256    1858.5138   -13174.742 
99770000    295.72668     298.2706    283.30839    4.5113627   -15020.636     1825.597   -13195.039 
99780000    294.98988    297.94203   -581.57059    4.4544725    -15103.05    1821.0486   -13282.001 
99790000    300.09001    298.19943   -786.43858    -76.40139   -15009.314    1852.5329   -13156.781 
99800000    306.91497     297.5241     163.7067   -60.871611    -15029.67    1894.6652   -13135.005 
99810000    291.58382    298.13035   -43.297096    16.165072   -14983.175    1800.0221   -13183.153 
99820000    292.16583    297.83282    159.64834    56.185311   -15038.592    1803.6149   -13234.977 
99830000     297.2873     297.3957   -602.50553   -34.075664    -14970.93    1835.2311   -13135.699 
99840000    300.84668     298.2999   -73.759691   -62.708655   -14908.508     1857.204   -13051.304 
99850000    289.85895    297.77102    511.66791    42.859051   -14992.257     1789.374   -13202.883 
99860000    291.47051    298.29436   -731.79002   -106.51034   -15074.346    1799.3225   -13275.024 
99870000    291.13948    297.69911   -129.05421    33.755887   -15054.349     1797.279    -13257.07 
99880000    302.44396    297.85515      55.0686   0.38480474   -15035.816    1867.0644   -13168.752 
99890000    297.95117    298.01021    -133.1251    41.324247   -15042.225    1839.3294   -13202.895 
99900000    295.11931    297.71668    428.65532    -12.66746   -15056.418    1821.8475    -13234.57 
99910000    296.61811    297.96137   -109.68864   -58.613243   -15059.322       1831.1   -13228.222 
99920000    295.93023    297.89135    352.21507    57.142331   -15017.296    1826.8536   -13190.442 
99930000    294.25271    298.07221   -144.85415    141.57657   -15051.897    1816.4978   -13235.399 
99940000     297.7297     298.1277   -272.94902   -37.989083   -15051.988    1837.9622   -13214.026 
99950000    302.79288    297.83558    296.35828   -64.985517   -15016.616    1869.2185   -13147.398 
99960000    299.92688    298.32236    -256.8176    53.894699   -14991.369    1851.5259   -13139.843 
99970000    293.98677    297.65003    57.665043   -100.43576    -14999.34    1814.8561   -13184.484 
99980000    290.79947    297.70804    -55.54789   -33.047974   -15077.298      1795.18   -13282.118 
99990000    304.51939    297.99635   -157.34873   -7.0139386    -15044.97    1879.8766   -13165.093 
100000000    295.97288    298.04039   -22.930358   -42.718226   -14964.307    1827.1168    -13137.19 
Loop time of 91040.1 on 128 procs for 100000000 steps with 3072 atoms

Performance: 189.806 ns/day, 0.126 hours/ns, 1098.417 timesteps/s
99.3% CPU use with 128 MPI tasks x no OpenMP threads

MPI task timing breakdown:
Section |  min time  |  avg time  |  max time  |%varavg| %total
---------------------------------------------------------------
Pair    | 19340      | 22915      | 26041      |1147.4 | 25.17
Bond    | 8.5741     | 9.6329     | 12.729     |  21.8 |  0.01
Kspace  | 38753      | 41944      | 45491      | 853.4 | 46.07
Neigh   | 2856.2     | 2878.6     | 2901.2     |  21.0 |  3.16
Comm    | 11438      | 12282      | 12964      | 332.8 | 13.49
Output  | 3.8232     | 85.584     | 101.03     | 169.4 |  0.09
Modify  | 8810.3     | 9458.3     | 10049      | 323.5 | 10.39
Other   |            | 1466       |            |       |  1.61

Nlocal:    24 ave 31 max 17 min
Histogram: 3 7 15 13 16 35 14 17 4 4
Nghost:    2892.12 ave 2921 max 2854 min
Histogram: 3 2 10 15 20 20 17 18 19 4
Neighs:    9043.52 ave 12623 max 5846 min
Histogram: 1 11 17 22 23 19 20 6 7 2

Total # of neighbors = 1157570
Ave neighs/atom = 376.813
Ave special neighs/atom = 1.95312
Neighbor list builds = 8661856
Dangerous builds = 0

quit
