3072
Atoms. Timestep: 0
O 30.5706 30.0482 4.76127
H 31.206 29.3503 4.92089
H 31.0442 30.8549 4.96443
O 23.6143 30.7899 21.3809
H 22.7709 30.3519 21.2666
H 23.4776 31.385 22.1181
O 30.1033 8.63837 28.1988
H 29.211 8.30485 28.2931
H 30.6532 7.97284 28.6123
O 2.54515 8.40347 15.1748
H 3.10148 7.62793 15.2473
H 2.35631 8.47669 14.2393
O 28.6641 4.34788 20.5599
H 28.8006 4.06466 21.464
H 27.7262 4.22888 20.4101
O 18.3259 9.25189 16.7817
H 17.8817 9.09619 17.6152
H 18.3271 10.2042 16.6847
O 32.1515 15.1253 6.40966
H 1.33268 15.1879 6.00265
H 31.8187 16.0228 6.40562
O 29.4321 9.32737 5.86921
H 30.1416 9.34244 5.22685
H 28.6349 9.25381 5.34456
O 13.2714 2.84349 18.3069
H 12.9319 2.22437 18.9532
H 14.1391 3.0803 18.6342
O 8.49866 22.1239 23.6774
H 7.94137 21.424 24.0176
H 8.0869 22.3787 22.8517
O 2.39837 16.2053 26.3912
H 3.18569 15.7323 26.6606
H 2.51471 16.3497 25.4521
O 3.84785 20.9386 21.7957
H 3.20163 21.6447 21.8022
H 3.65829 20.4325 22.5857
O 12.2651 17.125 10.4341
H 13.1486 16.8603 10.6902
H 11.745 17.0287 11.2318
O 10.6311 4.6232 30.4161
H 9.75861 4.76223 30.7844
H 10.7658 3.67699 30.4687
O 27.4912 7.57271 28.4141
H 26.8906 8.31767 28.4382
H 27.4213 7.17984 29.2841
O 27.9898 24.4005 14.4879
H 27.205 23.876 14.329
H 28.5058 23.8798 15.1034
O 0.778973 4.22717 24.2628
H 1.56905 4.03393 23.7581
H 0.860064 5.1534 24.4903
O 30.3608 6.55612 3.74335
H 31.1549 6.17997 3.36366
H 30.514 7.50093 3.73259
O 27.721 14.7911 24.0272
H 26.9751 14.507 24.5554
H 28.0477 15.5722 24.4738
O 16.1726 7.58346 8.09193
H 16.1815 8.35158 7.52084
H 15.4004 7.08907 7.81712
O 15.7224 26.566 28.6309
H 16.3861 27.2454 28.7491
H 14.9384 27.0416 28.3564
O 16.9503 15.31 4.38991
H 16.2129 15.0468 3.83927
H 16.59 15.9824 4.96808
O 0.906565 9.9271 24.1556
H 1.11933 9.00818 24.3185
H 1.75026 10.3781 24.1875
O 14.0776 27.7226 8.96835
H 14.1922 27.4564 9.88063
H 14.5232 27.0431 8.46235
O 25.9216 5.66786 17.3207
H 26.4689 5.58355 16.5399
H 25.3784 6.43748 17.1511
O 15.4592 22.7695 28.3493
H 15.196 23.5474 28.841
H 16.3946 22.6766 28.5299
O 22.6655 18.6995 10.3811
H 21.931 18.249 9.96439
H 22.7922 19.4892 9.85528
O 19.0043 15.7842 32.2631
H 19.127 15.6202 1.51518
H 18.4305 16.5495 32.2269
O 9.32829 29.3061 25.5669
H 9.85057 30.0639 25.3039
H 8.44581 29.6548 25.6928
O 14.6483 8.35387 16.6468
H 14.2499 7.5634 17.0111
H 15.5855 8.16093 16.6225
O 22.9234 8.04344 31.4882
H 23.4497 7.41212 31.9788
H 23.0887 8.88119 31.9208
O 15.2601 24.7032 17.0914
H 14.3983 24.8026 17.496
H 15.4828 23.7818 17.2241
O 10.9709 15.2336 17.3149
H 10.6652 15.6845 16.5278
H 11.1752 15.9374 17.9307
O 17.1337 31.6988 17.0568
H 17.4366 30.8348 17.3361
H 17.6082 31.868 16.2429
O 16.0263 20.1644 27.8749
H 15.7743 21.0834 27.7841
H 16.1912 20.0522 28.8111
O 3.88741 24.7445 31.9462
H 4.79171 24.5953 32.2223
H 3.77686 24.1879 31.1754
O 13.2647 3.90066 15.774
H 13.0838 3.55668 16.6487
H 12.4522 4.33506 15.5142
O 32.1101 1.29858 16.2693
H 31.2933 1.77464 16.1193
H 32.0079 0.915048 17.1403
O 21.6446 18.7876 23.8186
H 21.6504 18.4118 22.9382
H 21.977 18.0876 24.3805
O 4.37888 1.09549 20.9528
H 4.71501 0.716715 21.765
H 3.52242 1.45096 21.1901
O 28.8957 24.7574 4.19546
H 28.5289 23.8745 4.24149
H 28.2415 25.3115 4.62118
O 16.4945 6.215 10.5589
H 17.2697 5.68923 10.7561
H 16.6275 6.51042 9.65824
O 27.2762 7.43821 31.5427
H 27.7216 7.00976 32.2736
H 27.9382 8.01679 31.1642
O 6.41071 27.7466 21.4046
H 6.48145 27.6631 20.4537
H 6.5368 28.6803 21.5735
O 22.8389 2.30631 20.2679
H 22.3128 1.53745 20.4876
H 23.2703 2.54444 21.0885
O 16.27 29.4873 31.6923
H 15.4125 29.4132 31.2736
H 16.3342 28.7099 32.2471
O 0.695191 10.3801 26.8893
H 31.9547 9.73373 27.4544
H 0.714205 9.96794 26.0256
O 23.5502 25.9458 16.291
H 22.724 26.4233 16.3663
H 23.5107 25.5323 15.4286
O 5.13943 3.65621 19.7134
H 5.70307 4.35288 20.0499
H 5.20605 2.95801 20.3648
O 14.0133 2.63443 23.2459
H 13.4675 3.40234 23.0766
H 14.9078 2.97477 23.2629
O 17.4054 1.72334 3.18539
H 17.5771 2.07064 2.3101
H 18.2262 1.30291 3.44202
O 24.4104 2.42142 1.42856
H 25.13 2.32723 0.804515
H 24.721 3.07378 2.0564
O 16.8338 0.923428 27.9849
H 16.9199 31.8066 27.466
H 16.0614 0.773754 28.5301
O 11.1405 8.43691 31.5068
H 11.8505 8.97303 31.86
H 10.8989 7.8541 32.2266
O 11.4542 11.1187 23.1977
H 12.1483 11.1547 23.8559
H 11.9152 11.1648 22.3601
O 13.7561 23.1401 14.3834
H 13.591 22.2581 14.7166
H 13.1463 23.6974 14.8669
O 17.4889 19.4139 7.09657
H 16.9691 20.2118 7.19366
H 16.8733 18.7669 6.75203
O 29.7421 14.9359 5.24017
H 30.0042 15.0927 4.33302
H 30.5645 14.9291 5.7299
O 1.25585 23.6586 10.3608
H 1.4687 23.1677 11.1545
H 2.06502 23.6507 9.84954
O 19.8743 27.9932 11.1082
H 20.7231 27.7583 10.7333
H 19.984 27.8641 12.0503
O 17.8812 16.6063 21.791
H 18.4869 16.3424 21.0984
H 17.9858 17.5558 21.8524
O 2.5422 27.3421 28.5624
H 3.08249 27.6252 29.3001
H 2.86992 27.8462 27.8176
O 8.90122 4.7113 4.07362
H 9.62597 4.25987 4.50626
H 8.12556 4.20384 4.31252
O 20.4923 11.2586 9.61854
H 19.9988 10.4982 9.31117
H 20.0501 11.5214 10.4258
O 20.121 5.7911 28.6007
H 19.6907 5.18002 28.0027
H 19.4617 5.97717 29.2692
O 20.3584 18.0636 9.12675
H 20.114 17.2005 8.79263
H 19.5715 18.3811 9.56969
O 9.35444 21.7958 9.11994
H 8.43444 21.9995 8.95155
H 9.3795 20.8418 9.19325
O 14.5401 32.055 29.3328
H 13.9508 32.0826 30.0865
H 14.2554 31.2896 28.8335
O 9.19242 18.4892 4.75201
H 9.65552 18.287 3.93905
H 8.3573 18.028 4.67353
O 27.9907 27.4401 7.89352
H 27.4898 28.2284 8.10313
H 27.6537 26.775 8.49374
O 16.8003 8.23951 28.1028
H 17.6041 8.68368 27.8327
H 16.3146 8.90093 28.5955
O 3.42396 26.0623 3.72957
H 3.48268 26.0273 4.68433
H 2.90856 25.2913 3.49241
O 19.4523 25.3642 12.4126
H 19.637 25.005 11.5449
H 20.2593 25.814 12.663
O 17.6477 22.575 12.4797
H 16.9209 23.1733 12.6534
H 17.784 22.6311 11.534
O 10.5981 27.9005 13.3762
H 10.2818 27.0186 13.1805
H 10.2671 28.0846 14.2553
O 3.32122 29.5428 7.62758
H 3.22148 29.4482 6.68031
H 4.13252 30.0393 7.73503
O 17.0697 5.75562 21.0017
H 17.2947 4.94906 21.4655
H 17.1199 6.43883 21.6703
O 3.47462 27.2968 31.1975
H 3.00891 27.6216 31.9681
H 3.55897 26.3552 31.3471
O 12.5627 31.9554 2.72942
H 13.4968 31.8559 2.91348
H 12.5146 32.0527 1.77841
O 4.24856 20.888 11.3442
H 4.8502 20.2596 11.7435
H 4.28185 20.6908 10.4082
O 17.8676 30.1217 4.10446
H 18.219 30.9581 3.799
H 17.8972 29.5535 3.33472
O 21.3907 27.4864 13.4919
H 21.2515 28.2364 14.0701
H 22.3112 27.5476 13.2367
O 24.2161 4.49167 9.52025
H 23.799 5.12191 8.9328
H 23.5018 3.9236 9.80892
O 18.8531 28.0772 24.0478
H 18.9707 28.9284 23.6259
H 18.9859 28.2509 24.9797
O 18.9371 12.4541 4.0337
H 19.1763 13.3688 3.88416
H 18.2385 12.4924 4.68694
O 1.12698 5.49934 31.2398
H 32.1186 5.78142 30.6409
H 1.29449 4.58775 31.0007
O 30.9927 28.7749 18.7934
H 30.9664 28.8434 17.839
H 31.3869 29.5978 19.0823
O 10.5277 24.6157 24.9973
H 10.7611 24.5436 24.0718
H 10.5733 23.7182 25.3269
O 0.618263 11.7246 9.72517
H 32.2094 12.5217 10.2471
H 31.6718 11.831 9.01185
O 15.6275 6.6736 26.0304
H 15.7208 7.45399 26.5768
H 14.9728 6.91606 25.3755
O 1.41351 27.7139 9.43479
H 2.1864 27.5284 8.90143
H 0.673361 27.487 8.87184
O 22.9289 17.5117 32.0319
H 23.3558 16.6565 32.0819
H 23.5652 18.0719 31.5875
O 19.6613 15.2271 3.34176
H 18.9757 15.5199 3.9421
H 20.4126 15.7841 3.54552
O 30.4617 16.1685 21.1492
H 29.7817 16.812 21.3487
H 31.191 16.6875 20.81
O 16.3413 27.6729 17.5132
H 16.5907 26.9207 18.05
H 15.402 27.7757 17.6655
O 23.7888 1.36717 15.7403
H 23.0508 1.52136 16.3301
H 23.9345 32.1049 15.7802
O 25.1271 19.3091 31.3373
H 25.3211 19.478 32.2593
H 24.4688 19.9646 31.1066
O 3.68598 19.0733 28.3135
H 4.06903 18.8396 27.468
H 4.39508 19.5095 28.7859
O 19.9784 21.5445 18.2648
H 19.7398 20.9708 18.9928
H 20.8285 21.2177 17.9702
O 24.7592 15.7997 6.63816
H 24.4259 15.0779 7.17131
H 24.0859 15.9366 5.97173
O 3.75482 3.42801 4.31511
H 3.34763 4.27029 4.51762
H 4.67705 3.54646 4.54247
O 7.80073 28.6623 29.8049
H 7.92113 29.2924 30.5153
H 8.32935 29.0077 29.0855
O 16.6302 26.9054 1.1716
H 16.5611 26.1635 32.2537
H 16.6725 26.5071 2.04094
O 25.8357 22.228 0.966942
H 24.944 22.4933 0.741777
H 25.7277 21.4075 1.44802
O 4.68078 4.76835 26.7566
H 4.49364 4.68773 27.6918
H 5.24011 4.01735 26.5581
O 20.1839 31.0565 12.9679
H 20.3488 31.9853 13.1306
H 20.5648 30.6092 13.7236
O 11.4719 30.981 21.8417
H 11.4465 31.3156 22.7382
H 10.6968 31.3558 21.4236
O 14.0611 4.8467 12.4138
H 13.8266 5.61038 12.941
H 13.5132 4.14077 12.7568
O 28.3766 5.99167 1.81539
H 29.2301 6.29267 2.12737
H 28.494 5.05402 1.6628
O 9.6668 17.3445 29.5129
H 10.2419 16.9958 30.194
H 8.86427 16.8284 29.589
O 20.548 25.8457 24.5351
H 20.1167 26.6835 24.3671
H 21.4718 26.0696 24.6477
O 25.6727 26.929 26.6665
H 25.0245 26.3369 27.0478
H 25.167 27.694 26.3922
O 29.8082 6.75843 7.29965
H 29.6267 7.64053 6.97528
H 30.7112 6.79949 7.61442
O 5.4742 4.91506 16.3509
H 6.22001 4.36021 16.5793
H 5.18913 5.28902 17.1846
O 31.5114 16.8303 9.71777
H 30.7647 17.0891 10.2578
H 31.6287 15.8982 9.90131
O 2.4693 31.7405 10.0722
H 2.23162 31.9389 9.16642
H 1.98987 0.702006 10.5928
O 9.56096 0.859471 8.72574
H 9.36093 31.6501 9.00872
H 10.5171 0.89244 8.69377
O 13.0479 2.03648 13.7104
H 13.0917 2.64369 14.4491
H 12.197 1.60774 13.8023
O 4.20797 19.3836 5.1967
H 3.38034 19.8062 4.96722
H 3.97307 18.7461 5.87104
O 29.6975 11.4835 28.5952
H 30.0733 10.6072 28.5114
H 30.1576 12.0058 27.9381
O 11.9324 25.643 8.50308
H 11.535 26.3842 8.96017
H 12.7531 25.9891 8.15269
O 26.2697 11.4585 20.05
H 26.8886 12.1547 20.2702
H 26.4176 10.7866 20.7155
O 1.99731 9.36902 31.3177
H 1.69634 10.055 30.7217
H 2.34279 9.84295 32.0741
O 24.1621 11.2611 31.2133
H 23.6239 11.8805 30.7204
H 23.6127 11.0015 31.9529
O 23.3351 24.3032 14.0554
H 22.8071 24.2419 13.2594
H 24.1637 23.8819 13.8268
O 1.53626 31.7461 30.917
H 2.23186 31.278 31.3788
H 0.784977 31.1539 30.951
O 25.2871 6.21516 6.07831
H 25.7598 6.43786 5.27631
H 25.8386 5.56156 6.50829
O 26.5952 16.0131 3.74774
H 26.0319 15.2393 3.73442
H 26.09 16.6694 4.22767
O 19.7276 21.478 3.47022
H 19.681 21.1476 2.57308
H 20.3586 22.1966 3.42878
O 23.5041 8.39594 28.9828
H 23.1726 8.35072 29.8796
H 22.8412 8.89621 28.5069
O 0.852606 13.9764 13.8159
H 0.638895 14.2017 12.9104
H 1.49458 14.6347 14.0818
O 29.1149 9.25374 22.2569
H 29.4673 8.54078 22.7896
H 29.8879 9.71766 21.9352
O 4.05858 15.7912 10.5245
H 3.47089 16.3114 11.0725
H 3.54327 15.5904 9.74327
O 2.63752 22.1658 24.7088
H 2.19128 22.9768 24.4652
H 3.12273 22.3882 25.5033
O 23.3556 20.8116 23.6368
H 24.0875 20.2788 23.9477
H 22.6019 20.2221 23.6622
O 12.1951 23.1193 29.1674
H 12.7723 23.4298 29.865
H 12.2366 23.8034 28.4993
O 6.93084 23.9291 0.653711
H 7.15941 24.6642 31.7678
H 6.92259 23.169 31.7549
O 18.5899 19.7606 20.1721
H 18.0993 19.2613 19.5192
H 18.0502 19.7188 20.9615
O 8.62687 23.8825 2.87749
H 9.36428 23.2899 2.73135
H 8.17084 23.9101 2.03636
O 28.1417 9.03518 9.06352
H 27.3755 8.54348 8.76771
H 27.7871 9.86871 9.37292
O 6.39621 19.2789 8.18689
H 5.9397 18.8151 7.48496
H 6.56434 18.6078 8.84831
O 17.0086 6.32591 16.6721
H 17.7228 6.45419 16.0479
H 16.5837 5.51674 16.3877
O 3.87341 7.16267 3.48651
H 4.00718 7.71215 4.25879
H 4.08306 7.73302 2.74694
O 24.0936 3.80206 14.1809
H 23.6965 3.51362 13.3591
H 24.3145 2.99082 14.6384
O 12.7969 23.8003 2.49996
H 12.9492 24.6226 2.96561
H 13.4108 23.1824 2.89697
O 31.5988 18.1133 1.44099
H 31.4877 17.7084 32.2637
H 30.7165 18.3843 1.69447
O 3.73459 10.7067 18.7703
H 3.05535 10.1734 19.1831
H 3.59713 10.5853 17.8308
O 23.0979 1.64413 4.13815
H 22.9705 0.702391 4.2527
H 23.8406 1.71461 3.53838
O 23.7353 3.85537 22.7105
H 22.8956 4.04682 23.1282
H 24.0133 3.02619 23.0996
O 16.036 8.20128 4.01717
H 16.2723 8.52978 4.88463
H 15.089 8.32905 3.96193
O 12.1417 24.194 22.3223
H 12.6722 24.9903 22.2949
H 11.5687 24.261 21.5585
O 29.2594 22.0783 22.9843
H 28.4591 22.5794 22.8277
H 29.7202 22.5684 23.6652
O 29.3375 1.27859 3.66117
H 30.2926 1.22747 3.625
H 29.0376 32.1784 3.19955
O 8.08916 26.1203 30.9744
H 8.1768 27.0005 30.6087
H 8.81488 26.0444 31.5939
O 14.2395 14.1131 8.91065
H 15.0745 14.5603 8.77307
H 13.6433 14.5192 8.28144
O 3.68884 16.6082 2.32116
H 3.23536 17.089 3.01354
H 2.98757 16.2766 1.76033
O 21.9575 8.50733 9.62352
H 22.2647 9.32054 10.0242
H 21.244 8.21492 10.1906
O 2.05067 26.7086 14.0552
H 2.05818 25.8711 14.5187
H 1.98427 26.4704 13.1305
O 28.8024 7.56251 24.446
H 29.6044 7.14037 24.7539
H 28.8207 8.43244 24.8449
O 7.88564 4.03555 17.7435
H 8.57066 4.31989 17.1384
H 8.33258 3.94093 18.5847
O 26.3759 1.60551 9.83976
H 26.8613 0.792027 9.97718
H 25.4726 1.38784 10.0699
O 27.7179 1.05739 21.1152
H 28.649 1.13556 21.3233
H 27.6353 1.43477 20.2394
O 4.34575 8.53939 6.11459
H 4.67571 9.33154 5.69048
H 3.56106 8.82632 6.58166
O 20.6381 10.7357 13.6214
H 20.4961 11.4863 13.0446
H 19.7584 10.4117 13.8146
O 12.9411 7.55812 24.545
H 12.9609 8.10033 25.3336
H 13.2065 8.14932 23.8406
O 23.4693 21.2919 29.9765
H 22.6603 20.8167 29.7871
H 23.504 21.9808 29.3128
O 13.0747 32.2024 31.6216
H 13.7155 1.13029 31.9857
H 12.3371 1.07174 31.3624
O 21.4999 3.11903 8.82464
H 21.3216 2.74972 9.68954
H 20.6484 3.12803 8.38738
O 28.0145 11.982 13.0442
H 28.3569 12.4417 13.8108
H 28.2444 12.5444 12.3046
O 6.12402 6.99002 9.53227
H 5.89515 7.07836 8.60704
H 5.64184 7.69342 9.96698
O 21.7283 13.3792 5.61439
H 21.0087 12.9974 6.11685
H 21.6862 14.3156 5.80851
O 19.3027 1.29013 29.6206
H 19.7084 1.92973 29.0353
H 18.4307 1.14721 29.2525
O 10.7547 9.43263 15.8274
H 11.3269 8.94737 15.233
H 11.075 10.3337 15.7866
O 21.1989 13.3459 25.0953
H 21.9005 13.0516 24.5146
H 21.1816 12.6971 25.7988
O 28.2333 28.1983 1.01496
H 27.3413 28.5336 0.925122
H 28.1209 27.2782 1.25384
O 12.7409 4.37594 25.5205
H 13.2423 3.58789 25.3114
H 12.8366 4.93326 24.7482
O 27.3998 19.2569 19.4164
H 27.2014 20.0534 19.9088
H 26.712 19.2076 18.7525
O 1.92938 9.26921 19.902
H 1.5604 9.96356 20.4478
H 1.62466 8.45754 20.3077
O 24.9488 13.6032 3.10013
H 24.6832 13.7298 2.18925
H 25.7325 13.0561 3.04784
O 12.2056 1.11502 8.77913
H 12.5548 1.92657 8.41083
H 12.7658 0.933286 9.53367
O 20.973 30.7257 29.8254
H 20.3697 30.054 30.1433
H 20.4175 31.4869 29.6572
O 10.4222 0.604116 27.7937
H 10.3735 31.3505 27.9854
H 11.3599 0.791208 27.7479
O 23.2623 3.16239 6.63387
H 22.9734 2.5018 6.00428
H 22.9473 2.84227 7.47917
O 7.32022 15.8332 29.346
H 7.20787 16.2071 28.472
H 7.2909 14.8865 29.2076
O 10.1446 9.67429 5.54616
H 9.63063 9.24871 4.85988
H 10.6553 10.34 5.08556
O 5.40479 1.39642 29.9329
H 5.42789 32.1225 29.9206
H 4.6435 1.62496 29.3995
O 24.9757 4.17296 3.33006
H 24.1872 4.38664 3.8288
H 25.6094 4.84402 3.58384
O 18.7383 2.76302 10.621
H 17.8361 2.45815 10.7174
H 18.7313 3.65051 10.9795
O 2.5016 10.7118 11.7221
H 2.79295 9.80133 11.6734
H 1.77254 10.7639 11.1041
O 19.1647 5.87451 14.8657
H 19.2655 4.94578 15.0744
H 20.0051 6.26644 15.1034
O 6.12292 14.2265 22.7494
H 5.9766 14.2144 23.6953
H 5.9874 15.1398 22.4972
O 6.31964 12.6892 9.45727
H 6.7955 12.5142 10.2692
H 6.74104 12.128 8.80636
O 3.68567 13.8872 28.0031
H 4.18855 14.1793 28.7634
H 2.84425 13.6086 28.3646
O 10.1499 18.182 18.6247
H 9.62925 18.6474 17.97
H 9.56955 17.4922 18.9466
O 27.5497 12.2866 2.71731
H 27.8237 11.3714 2.65759
H 27.8485 12.6806 1.8977
O 25.6357 19.172 24.2428
H 25.3325 18.2937 24.4728
H 26.0303 19.0705 23.3767
O 20.4057 27.3837 0.6479
H 19.9881 26.6897 1.15808
H 20.9217 26.9196 31.6716
O 14.1032 26.1717 3.18393
H 13.7234 26.5937 3.95459
H 14.8702 25.7069 3.51837
O 7.98769 10.4287 17.4841
H 8.58775 11.1232 17.2125
H 7.90433 9.86822 16.7126
O 13.3195 30.6336 15.3154
H 12.6057 31.1769 14.9815
H 13.5376 31.0189 16.164
O 16.9903 32.2284 21.9014
H 16.8756 1.41828 22.2773
H 17.1727 0.704962 20.9754
O 4.29447 9.00576 1.28113
H 4.74304 9.81775 1.04515
H 4.34495 8.46575 32.1753
O 11.2282 29.211 17.8631
H 10.5318 28.846 18.4091
H 11.1546 30.158 17.9816
O 16.885 7.38116 31.9348
H 17.0121 8.12007 0.846913
H 16.7689 6.62595 0.828394
O 28.6182 18.5392 6.13665
H 28.3498 17.6537 6.38179
H 28.2758 19.096 6.83589
O 15.9622 18.5058 25.6217
H 16.2895 18.7404 24.7534
H 15.9977 19.3222 26.1202
O 6.78955 22.6872 27.5958
H 6.92831 22.8093 28.535
H 7.33309 23.3587 27.1836
O 25.955 32.1448 3.7987
H 26.0057 1.31156 3.3609
H 25.3424 31.6369 3.26676
O 16.7944 9.63118 6.2849
H 17.7327 9.56456 6.10779
H 16.5389 10.4746 5.91116
O 1.91556 29.1243 21.9233
H 2.59171 28.4621 22.067
H 2.05384 29.764 22.6218
O 31.0255 21.2573 2.65514
H 31.5323 21.7271 3.31742
H 30.2442 20.9568 3.11937
O 18.8371 5.17126 11.7837
H 18.5894 5.21742 12.7072
H 19.0439 6.07491 11.5453
O 10.4006 22.9606 11.6213
H 10.1661 22.3614 10.9126
H 10.9545 23.6205 11.2043
O 9.31901 28.2542 19.4209
H 8.58882 28.8175 19.6773
H 9.7565 28.0387 20.2446
O 30.3737 21.8954 31.633
H 29.4978 22.2569 31.4978
H 30.3566 21.5524 0.843534
O 18.9073 29.36 31.068
H 18.008 29.3428 31.3955
H 19.3294 28.6096 31.4863
O 22.9568 25.6876 10.2457
H 22.8174 26.6345 10.2373
H 23.2342 25.478 9.35384
O 25.7469 14.7219 22.096
H 26.2873 14.7966 22.8825
H 24.857 14.9035 22.3981
O 1.51626 16.2113 17.0458
H 1.88017 16.6419 17.8194
H 1.26799 15.3388 17.3513
O 1.3589 23.9283 14.5303
H 1.36591 23.4118 13.7244
H 1.3215 23.2781 15.2318
O 28.7458 10.462 16.1379
H 28.9565 11.2588 15.6511
H 29.3709 9.81216 15.8165
O 8.32226 29.2647 12.3553
H 8.83946 29.3293 11.5524
H 8.91193 28.8551 12.9883
O 2.3933 30.8567 25.8968
H 1.60184 30.4088 26.1956
H 2.28521 31.7597 26.1951
O 27.5055 4.45895 23.8275
H 28.3425 4.00213 23.9118
H 26.8587 3.75957 23.7341
O 13.8943 0.641133 25.7424
H 14.1854 1.4039 26.2421
H 13.4929 31.7492 26.394
O 1.83587 2.28014 21.6351
H 2.01333 2.8961 20.9242
H 0.920788 2.02804 21.5113
O 9.07964 21.6494 20.9516
H 8.49731 21.0743 21.448
H 8.84644 21.4949 20.0362
O 19.0248 9.98561 30.7913
H 19.0997 9.06008 31.0236
H 19.0772 10.4481 31.6277
O 29.1139 30.4921 28.2794
H 28.5622 29.7121 28.3393
H 28.6117 31.1001 27.7368
O 8.36215 26.9009 9.80881
H 9.29838 26.8975 10.008
H 8.14619 27.8253 9.68625
O 3.62618 24.416 9.43115
H 3.34869 24.3187 8.52024
H 4.27626 25.1183 9.41027
O 18.0325 5.87216 24.6255
H 17.8572 5.08091 24.1161
H 17.2253 6.02511 25.1167
O 32.2492 30.0492 7.61838
H 32.2393 30.8329 7.06888
H 1.49464 29.8394 7.72043
O 8.02955 19.5818 1.06773
H 7.76738 20.2515 32.1191
H 7.2237 19.1006 1.25572
O 7.92 1.66048 31.1419
H 7.00186 1.75979 30.8901
H 8.00751 2.18089 31.9405
O 13.2886 8.30052 3.61665
H 13.0742 8.88106 2.88643
H 13.1283 8.829 4.39846
O 10.2315 15.7556 3.30283
H 11.1647 15.5506 3.36162
H 10.2005 16.6147 2.88191
O 4.79373 15.5537 30.2571
H 5.52317 15.9406 29.7729
H 5.19084 15.216 31.0599
O 16.2415 22.8716 1.91309
H 16.3065 23.6223 2.50337
H 16.04 22.1322 2.48653
O 10.484 13.6818 10.6031
H 10.4934 12.8185 10.1897
H 9.5944 13.7748 10.9441
O 5.93926 2.78846 24.1068
H 6.12333 1.8569 23.9862
H 6.514 3.05578 24.824
O 3.10611 15.8785 23.3909
H 3.35712 14.9812 23.1715
H 3.57274 16.4206 22.7549
O 1.52312 17.497 3.63258
H 1.53463 18.1857 4.29727
H 1.20182 17.9314 2.84246
O 14.0432 21.9844 4.07116
H 13.3483 21.3706 4.3091
H 14.1915 22.4985 4.86485
O 12.2241 5.9066 3.51812
H 12.4908 5.49355 2.69683
H 12.4876 6.8219 3.42303
O 23.6133 2.25631 29.5384
H 22.9937 2.94356 29.7833
H 24.471 2.67889 29.5845
O 23.3002 20.5905 4.0527
H 24.202 20.2701 4.06842
H 22.8049 19.8924 3.62431
O 29.2714 13.0935 15.1238
H 28.8407 13.3738 15.9314
H 29.6238 13.8999 14.7474
O 1.10561 21.6445 16.4013
H 1.86763 21.163 16.7233
H 32.2047 20.9681 16.058
O 23.2258 21.373 10.1224
H 23.6141 21.5401 9.26363
H 22.846 22.2126 10.3815
O 25.4058 28.8889 20.6644
H 24.801 29.5712 20.956
H 24.8784 28.3276 20.0961
O 21.6948 18.7647 2.57916
H 21.266 19.4514 2.06839
H 22.0487 18.1636 1.9237
O 2.54348 14.4149 19.742
H 2.82288 14.0487 20.5811
H 2.48194 15.357 19.8999
O 15.8945 10.7566 29.0011
H 16.8064 10.8574 29.2741
H 15.7359 11.4974 28.416
O 5.504 20.3792 3.13685
H 5.08336 19.9976 2.36631
H 5.06519 19.9647 3.87974
O 8.43949 15.7696 1.21913
H 8.88589 15.6466 2.05688
H 9.09115 16.1922 0.659722
O 25.8735 30.2779 17.3932
H 26.6376 30.8387 17.2596
H 26.1909 29.5693 17.953
O 10.8805 19.4399 21.1259
H 10.3162 20.2118 21.0831
H 10.4935 18.8249 20.5028
O 4.93881 25.4885 11.9972
H 5.36889 25.7456 11.1816
H 4.00572 25.6184 11.8277
O 24.4833 5.90651 28.7963
H 23.6889 5.57891 29.2181
H 24.3677 6.85639 28.7718
O 20.6312 12.8116 15.5842
H 21.0642 12.6364 16.4197
H 20.5668 11.9545 15.1629
O 13.4015 20.0673 16.1296
H 13.0521 20.7295 16.7259
H 12.6267 19.6679 15.734
O 26.9351 26.1137 5.67729
H 26.5688 26.6887 5.00539
H 27.3394 26.7092 6.30837
O 8.2314 8.80188 9.76563
H 7.40872 8.33885 9.60741
H 8.20343 9.03019 10.6948
O 24.0971 0.679333 27.2017
H 24.0049 31.4483 27.4707
H 24.0003 1.17908 28.0123
O 6.24564 30.0272 2.14125
H 5.79301 29.1958 2.28352
H 6.15474 30.495 2.97135
O 8.90247 19.52 16.4992
H 8.14927 19.0362 16.1604
H 8.53991 20.0764 17.1886
O 28.687 3.23151 1.79236
H 29.1144 2.66149 1.15309
H 28.7274 2.74283 2.61443
O 20.1798 26.2491 29.254
H 21.0102 26.6562 29.007
H 19.5124 26.8729 28.9683
O 11.3506 22.2382 6.93651
H 11.4246 23.1192 6.56964
H 10.6371 22.3017 7.57138
O 20.2255 7.43586 31.3959
H 21.1706 7.51119 31.2647
H 20.119 6.64667 31.9271
O 8.64536 13.5763 25.5852
H 9.29468 13.7047 26.2766
H 9.00477 14.0407 24.8293
O 11.0745 31.8793 17.9052
H 10.4188 32.1012 18.5662
H 10.9227 0.822156 17.197
O 16.7502 12.579 5.58887
H 16.574 13.4777 5.31061
H 17.0852 12.6654 6.48136
O 28.1373 13.3023 20.5772
H 28.0699 13.5365 19.6515
H 27.4144 13.7694 20.9962
O 18.7386 23.0754 31.9929
H 17.8517 22.9805 0.657477
H 18.6364 22.9828 31.0457
O 19.848 31.819 9.5165
H 20.2403 0.894094 9.08333
H 20.1205 31.0711 8.98487
O 7.83672 27.5234 4.95404
H 7.93804 27.5554 4.00275
H 7.77957 28.4411 5.22024
O 23.2557 1.30244 23.6425
H 22.3397 1.31922 23.9199
H 23.6566 0.619103 24.1796
O 24.9323 18.6057 13.1239
H 24.3854 18.8389 13.8741
H 25.0948 19.4369 12.6779
O 26.9545 26.3366 30.0996
H 27.4887 26.4624 30.8839
H 27.3535 25.5888 29.6549
O 24.3086 15.2151 10.9137
H 24.9218 14.7084 11.4461
H 23.6985 14.5647 10.566
O 19.5805 12.5581 7.19477
H 19.7936 12.2577 8.0783
H 19.5451 13.5118 7.26757
O 5.3706 3.57295 7.41419
H 5.41097 4.527 7.34789
H 6.09064 3.3425 8.00127
O 7.20759 2.22442 9.11088
H 7.96214 1.67825 8.89045
H 6.74778 1.7346 9.7927
O 4.67669 13.3791 18.3994
H 4.00235 13.9317 18.7945
H 4.65654 12.5716 18.913
O 2.35374 27.8686 1.93486
H 2.73634 27.4074 2.68127
H 1.43351 27.6051 1.936
O 11.6487 29.0745 3.462
H 12.523 29.1212 3.0751
H 11.1856 28.4267 2.9308
O 27.1012 29.2274 23.5144
H 26.771 28.3404 23.3715
H 27.8674 29.1107 24.0761
O 9.26623 20.0015 29.181
H 9.26723 19.0582 29.3435
H 10.1831 20.2165 29.0097
O 30.2561 3.35682 22.9089
H 30.4946 2.54295 22.4651
H 31.0796 3.83883 22.985
O 6.85293 23.655 21.6973
H 7.26165 24.4132 22.1149
H 5.98758 23.5956 22.1021
O 29.2365 26.733 20.4629
H 29.134 26.1241 21.1942
H 29.9708 27.292 20.7171
O 31.1781 30.3172 13.1483
H 31.6141 30.1147 13.976
H 31.8457 30.1602 12.4807
O 26.4763 11.7757 7.28298
H 27.1564 11.757 7.95631
H 26.8693 12.2622 6.55835
O 21.4263 30.7636 27.0633
H 22.2418 30.2809 26.9283
H 21.3264 30.8047 28.0144
O 2.6632 12.166 0.967525
H 2.76169 12.4289 31.7353
H 3.55338 12.1822 1.31901
O 10.4685 10.563 12.405
H 9.73128 9.95462 12.3548
H 11.1817 10.0456 12.7791
O 24.974 8.53058 10.1496
H 24.9671 8.62055 9.19667
H 24.5855 9.3445 10.4703
O 22.0597 21.7703 6.19311
H 21.5583 21.2294 6.8032
H 22.0421 21.2826 5.36967
O 6.24329 14.4147 32.108
H 7.04763 14.7464 0.824129
H 6.04131 13.6192 0.917762
O 25.0331 31.1395 24.4932
H 25.8112 30.6598 24.2093
H 24.6558 30.5967 25.1855
O 30.6306 17.3412 16.7886
H 30.1601 17.0719 15.9996
H 31.4905 16.9284 16.7078
O 21.9389 7.23326 14.4873
H 22.0854 6.29959 14.3355
H 22.7211 7.52602 14.955
O 22.6153 4.47824 1.15253
H 21.7706 4.31188 1.571
H 23.0331 3.61835 1.1051
O 28.0607 23.0049 31.434
H 27.6565 23.2881 30.6138
H 27.3262 22.8936 32.0376
O 29.9776 5.62381 11.5051
H 29.9085 6.56958 11.3747
H 30.7701 5.3734 11.0302
O 19.9847 20.269 7.63094
H 19.0671 20.1767 7.37463
H 20.2471 19.39 7.90438
O 20.8102 24.1424 7.14297
H 21.4375 24.8644 7.10559
H 21.2455 23.4224 6.68653
O 26.7886 16.1904 16.4902
H 26.0261 15.8139 16.0507
H 26.571 17.1163 16.5973
O 1.36551 6.26184 2.02665
H 2.07075 6.9069 2.07926
H 1.2431 6.11606 1.08857
O 32.2297 14.034 30.5716
H 32.2698 13.8941 29.6255
H 31.8881 13.2112 30.9216
O 20.8304 14.9077 21.6064
H 20.6866 14.9226 20.6602
H 21.7601 15.1105 21.711
O 30.9585 15.3257 2.79803
H 31.5487 16.0594 2.96986
H 31.5384 14.5725 2.68546
O 8.18068 24.6532 5.54075
H 7.93271 25.5666 5.39805
H 8.25328 24.2839 4.66063
O 16.1541 15.8971 15.2677
H 16.4991 15.8555 14.3758
H 16.8998 15.6727 15.8242
O 7.40808 7.28737 1.56804
H 6.87563 6.6712 2.0711
H 7.76932 6.76396 0.852653
O 29.2682 22.6047 12.0843
H 29.5132 23.1442 11.3325
H 29.1966 23.2237 12.8108
O 24.0468 11.077 10.7876
H 23.5589 10.491 11.3662
H 23.4359 11.7886 10.5961
O 16.7748 12.8856 11.8602
H 17.727 12.8104 11.9231
H 16.5831 12.7377 10.9341
O 7.07983 32.0445 17.8234
H 7.70072 32.1516 18.544
H 7.62524 32.0294 17.0369
O 2.87579 29.4005 4.6898
H 2.60448 29.9866 3.98333
H 2.17873 28.7464 4.74002
O 19.9277 3.11949 21.9204
H 20.6799 3.35363 22.4641
H 19.1804 3.15243 22.5176
O 17.3478 28.507 6.31424
H 17.6164 27.5935 6.21614
H 17.6334 28.9294 5.50418
O 11.5609 16.9923 27.2746
H 11.0437 17.5685 26.7117
H 11.0704 16.9555 28.0957
O 1.1221 20.6157 30.986
H 32.0535 20.8068 31.5472
H 1.02995 19.6879 30.7693
O 22.4428 10.3121 1.47975
H 22.5484 10.5391 2.40361
H 21.8188 10.9558 1.14426
O 30.1918 8.14978 10.8933
H 29.6155 8.42829 10.1816
H 30.0922 8.82741 11.562
O 3.7252 3.85606 29.0776
H 4.23563 4.09152 29.8524
H 2.88017 3.57025 29.4247
O 7.71072 15.0429 8.59384
H 7.36211 15.0311 7.70246
H 7.41015 14.2201 8.97991
O 14.432 19.4244 21.3631
H 13.7719 18.736 21.4441
H 15.0785 19.2176 22.0381
O 2.31971 7.92397 12.188
H 1.48282 7.55149 12.4657
H 2.89032 7.16563 12.0633
O 27.4759 17.6348 13.0841
H 26.519 17.6258 13.105
H 27.7148 18.504 13.4061
O 19.5493 25.0366 2.15647
H 18.764 25.1633 2.68882
H 19.2434 24.554 1.38853
O 1.62151 5.45333 5.30657
H 1.47611 5.66073 6.22965
H 1.72084 6.3054 4.8819
O 5.28907 31.594 10.2528
H 5.1896 30.839 10.8327
H 4.40405 31.9482 10.1659
O 10.103 28.5944 0.899537
H 9.79164 29.3942 32.1587
H 9.30604 28.1503 1.18919
O 24.898 28.3897 9.33916
H 25.5561 28.9251 8.89582
H 25.355 28.0275 10.0982
O 16.2861 11.5463 14.388
H 16.4507 11.8022 13.4805
H 17.0477 11.8686 14.8701
O 12.0609 20.8438 31.5344
H 11.7539 21.0513 30.6519
H 12.9495 21.1982 31.5689
O 19.4184 2.40543 32.2761
H 19.3969 2.09063 31.3724
H 20.2397 2.06392 0.946879
O 30.4916 29.636 9.64944
H 31.2838 29.7717 9.12966
H 30.2957 30.4976 10.0177
O 24.2969 21.6808 7.55139
H 24.7563 22.5125 7.66781
H 23.5803 21.8845 6.9504
O 15.1809 31.374 2.83788
H 15.2029 30.9841 1.96396
H 15.9974 31.8696 2.90016
O 9.43747 2.14478 23.6366
H 9.1114 2.65091 24.3808
H 9.72856 2.80429 23.0069
O 0.632036 4.71911 18.5267
H 1.34416 4.93688 19.1281
H 1.0152 4.08499 17.9206
O 28.0475 6.97035 13.7898
H 27.2056 7.33307 13.5143
H 28.4004 6.55764 13.0015
O 8.38229 26.9222 2.3701
H 7.5825 26.7274 1.88161
H 8.5268 26.1471 2.91285
O 8.09862 5.76702 31.1809
H 8.10236 6.10297 30.2846
H 7.26909 5.29551 31.257
O 6.49744 4.44762 13.5354
H 6.15952 3.63047 13.9019
H 6.69988 4.23628 12.6241
O 11.4257 13.2484 0.715619
H 10.7426 12.6045 32.2113
H 11.3146 13.453 1.64408
O 14.7175 19.8738 13.7368
H 15.5994 20.0262 14.0763
H 14.1455 19.9854 14.4962
O 1.97469 25.956 11.4612
H 1.6487 25.1394 11.0828
H 2.12883 26.5252 10.7072
O 18.1117 28.0224 28.629
H 18.5575 28.2859 27.824
H 18.4683 28.6025 29.3018
O 4.22795 8.75052 28.5948
H 3.46017 8.3463 28.1906
H 4.92009 8.65893 27.94
O 30.2507 5.56573 26.1714
H 30.3169 5.6646 27.1212
H 31.0454 5.97694 25.8314
O 30.5186 30.5183 31.1822
H 29.6838 30.7831 30.7959
H 30.8399 29.8242 30.6066
O 28.3357 13.8025 17.4597
H 27.8136 14.5869 17.628
H 29.2002 14.0088 17.8151
O 6.57824 17.0865 10.1552
H 5.69148 16.7265 10.1723
H 7.01951 16.6044 9.45585
O 7.30207 30.4671 21.5734
H 7.89067 30.9695 21.01
H 6.43242 30.6097 21.1997
O 28.7877 0.949634 18.1513
H 29.0968 31.9279 17.582
H 29.4483 1.00786 18.8415
O 5.5194 14.6796 12.5741
H 4.98135 15.1907 11.9695
H 6.41847 14.9405 12.3744
O 1.31597 24.6394 1.29127
H 2.21123 24.7452 0.969516
H 0.820793 24.3397 32.2118
O 6.82982 18.8266 14.8013
H 5.9512 18.7525 15.1738
H 6.92105 19.7545 14.5846
O 31.5378 30.0809 27.003
H 30.8415 30.4103 27.5713
H 31.0877 29.8161 26.2008
O 9.48228 15.5632 15.2095
H 10.0467 15.8962 14.5118
H 9.13924 14.7377 14.8673
O 12.8407 8.87254 6.53335
H 11.9217 8.71652 6.7509
H 12.9237 9.82589 6.51186
O 31.6045 17.5085 24.9557
H 32.0101 18.3201 24.6507
H 31.6301 16.9271 24.1957
O 3.59366 10.184 24.0951
H 4.02849 10.8877 24.5767
H 4.14457 10.0441 23.325
O 12.2724 25.2744 27.4719
H 11.5948 25.2625 26.7959
H 13.0938 25.3538 26.987
O 16.895 26.3098 10.4431
H 17.4249 26.1447 11.223
H 16.5771 25.4457 10.1816
O 21.5824 4.26629 24.1457
H 21.2998 5.17422 24.2555
H 22.1279 4.09038 24.9123
O 30.9025 24.1905 18.4616
H 31.5413 23.4942 18.614
H 31.3273 24.9823 18.7916
O 1.69024 17.9335 11.4602
H 1.05734 17.5158 10.8761
H 2.12233 18.5911 10.9151
O 16.1887 3.60766 8.31946
H 16.7338 3.50128 7.53981
H 15.2918 3.61923 7.98547
O 4.51233 12.1405 12.835
H 4.59581 13.0894 12.7417
H 3.72847 11.918 12.3328
O 22.8248 9.4755 12.4682
H 22.7748 8.54001 12.6647
H 22.0426 9.84829 12.8749
O 15.6239 21.7883 22.5542
H 16.3128 21.1602 22.3371
H 15.513 21.7051 23.5013
O 10.8666 16.1436 31.6026
H 11.0215 15.2645 31.9482
H 11.5949 16.6656 31.9394
O 25.5004 30.828 29.6255
H 24.8596 30.6126 30.3031
H 25.7699 29.9803 29.2719
O 19.2342 10.0333 5.5828
H 19.0979 10.8391 6.08117
H 19.5569 10.3293 4.73161
O 26.7012 2.58653 31.8421
H 26.3127 3.42865 31.6052
H 27.3774 2.80603 0.800096
O 15.2086 12.58 22.5667
H 14.7808 12.4424 21.7216
H 15.4261 13.5121 22.5767
O 13.1157 27.1995 20.4808
H 13.0825 27.8463 19.776
H 12.3977 27.4438 21.0648
O 15.1442 4.54738 19.0515
H 15.4137 4.94151 19.8811
H 14.3733 5.04913 18.7867
O 26.0898 17.981 21.751
H 25.9964 18.5649 20.9982
H 25.4595 17.279 21.5899
O 4.09421 7.13603 30.9229
H 4.36723 7.68664 30.1891
H 3.13799 7.17774 30.9115
O 25.3261 20.5829 11.4232
H 25.7474 21.3862 11.7288
H 24.606 20.8851 10.8698
O 26.6401 29.7981 7.9363