3108
Atoms. Timestep: 0
O 4.41688 18.8202 2.98009
H 5.20619 18.6806 3.50329
H 3.69564 18.7098 3.59966
O 1.60365 19.2062 10.0194
H 1.65971 18.5252 10.6897
H 2.29234 18.9837 9.393
O 6.63136 2.21094 13.4865
H 7.34293 2.23659 12.8468
H 7.04141 2.46893 14.3121
O 3.30093 31.61 19.3118
H 2.39826 31.9084 19.4232
H 3.73341 31.8418 20.1337
O 29.7359 8.70107 7.16446
H 30.2214 8.09914 7.72859
H 30.3583 8.94124 6.47799
O 25.6509 9.49469 10.5283
H 26.5585 9.19268 10.4919
H 25.4453 9.74585 9.62777
O 1.40668 16.9555 1.38551
H 1.16173 16.0595 1.61698
H 1.14584 17.4789 2.14325
O 9.76782 20.9968 17.2922
H 9.02977 21.6063 17.2823
H 9.38523 20.1609 17.5588
O 32.0136 26.9228 4.77649
H 31.918 27.7923 5.16531
H 31.1211 26.5794 4.73425
O 15.7251 31.1458 20.2671
H 15.679 32.0581 19.9812
H 16.4382 30.7686 19.7519
O 28.9496 16.9982 13.9077
H 29.3615 17.7979 14.2347
H 29.6566 16.5271 13.4666
O 12.6945 9.93402 5.98622
H 13.3775 10.1798 6.61014
H 13.1409 9.90688 5.13995
O 4.89866 14.185 15.7052
H 3.99108 14.4016 15.4916
H 5.31775 14.0435 14.8563
O 24.5131 1.56826 30.4153
H 23.8753 0.903427 30.1555
H 25.0144 1.15764 31.1197
O 4.43514 20.9467 7.36675
H 3.974 21.7849 7.33534
H 5.13938 21.0361 6.72464
O 27.1536 5.2894 30.1264
H 27.8934 5.78462 30.4779
H 27.3836 4.373 30.2797
O 8.56236 25.0647 22.0909
H 7.64738 25.3137 21.9604
H 8.74451 25.2898 23.0033
O 2.53478 3.60235 2.60222
H 3.11208 2.97441 3.03654
H 1.65097 3.30672 2.82066
O 27.0851 20.1465 16.4161
H 27.8012 19.6591 16.8233
H 26.2909 19.72 16.7381
O 22.474 29.4023 18.931
H 22.1595 29.5717 19.819
H 23.3101 28.9529 19.0541
O 5.49293 12.4614 17.4443
H 5.37871 13.2338 16.8906
H 6.25156 12.6676 17.9903
O 18.2385 20.4833 14.9707
H 17.5746 20.7115 15.6214
H 17.83 20.6871 14.1294
O 9.95228 10.1486 9.64356
H 10.098 11.0724 9.84739
H 9.66772 9.76207 10.4717
O 15.3265 7.46327 29.7264
H 14.8732 6.95592 29.0531
H 15.9985 7.94954 29.2487
O 17.0356 30.1466 31.3764
H 16.6467 31.0161 31.4712
H 17.8919 30.3087 30.9804
O 8.94435 20.0491 2.43713
H 9.87499 19.9601 2.23165
H 8.71802 19.2331 2.88344
O 21.3709 16.4034 10.5336
H 22.2023 16.8777 10.5305
H 21.4633 15.7525 9.83782
O 17.0524 28.9063 27.1774
H 16.396 28.6497 26.5296
H 16.5443 29.2675 27.9037
O 4.47524 30.3183 9.03279
H 3.82398 29.6211 9.1104
H 4.03416 31.0975 9.37125
O 24.842 31.3239 16.5191
H 25.6629 31.6775 16.1765
H 25.0047 31.2031 17.4547
O 19.9525 2.46389 4.70753
H 19.3747 1.71672 4.86314
H 19.4119 3.08863 4.22408
O 16.0297 24.1969 4.75957
H 16.8591 24.6747 4.7706
H 16.2026 23.4286 4.2156
O 24.77 9.9151 22.599
H 24.3568 10.5325 21.9954
H 24.0501 9.36747 22.9122
O 18.4581 14.2356 11.0438
H 17.5287 14.2855 11.2675
H 18.4786 13.775 10.2049
O 6.6957 14.6983 29.3175
H 6.56373 14.953 28.4043
H 6.32623 13.8173 29.3767
O 25.1804 14.1013 17.4577
H 25.4427 15.0217 17.4777
H 26.001 13.6201 17.3514
O 22.7747 30.7129 23.5499
H 23.6613 30.3701 23.6628
H 22.5985 31.1936 24.3587
O 20.8356 30.6924 11.3257
H 20.0832 30.1659 11.0558
H 21.542 30.0577 11.4457
O 25.7594 29.1908 24.9136
H 26.2538 29.1673 24.0943
H 26.1297 28.4808 25.4379
O 27.8455 15.387 29.7248
H 27.6252 15.45 30.6542
H 28.2577 16.2259 29.5185
O 10.2711 4.28606 11.2737
H 9.59695 4.95651 11.3842
H 9.99278 3.56951 11.8441
O 3.62794 10.681 13.102
H 3.92241 9.87112 13.5187
H 2.79149 10.8776 13.5238
O 18.3294 12.9311 30.09
H 18.2005 12.3786 30.8609
H 18.036 13.7996 30.3655
O 31.446 8.36212 2.5095
H 30.6033 7.90823 2.51527
H 31.5578 8.67207 3.40821
O 26.6558 31.9994 2.61968
H 26.5204 31.8434 1.68503
H 27.5771 32.2493 2.69024
O 0.791846 29.3999 17.7993
H 1.35194 29.6328 17.0588
H 32.1366 28.8024 17.4299
O 20.6599 26.4665 19.9479
H 21.1691 27.0092 20.5499
H 21.2131 26.3862 19.1709
O 11.9266 7.82018 24.9416
H 11.1338 8.35109 24.865
H 11.6074 6.92003 25.0053
O 10.8478 7.72025 28.7183
H 10.7852 7.5005 29.6479
H 9.94424 7.69233 28.4037
O 18.2386 30.7506 19.0794
H 18.7219 30.3276 19.7892
H 18.8856 30.8647 18.3832
O 21.0303 22.306 28.7853
H 20.6652 21.4991 28.4221
H 21.8648 22.418 28.3299
O 6.2 28.4496 6.59398
H 5.31054 28.7347 6.38467
H 6.0806 27.6826 7.15408
O 28.697 22.3807 15.6364
H 29.1926 22.7213 16.3811
H 28.1314 21.7064 16.0127
O 10.7487 26.749 4.78507
H 11.1211 27.5627 5.1249
H 10.2287 26.4019 5.5099
O 15.8689 16.45 1.94807
H 15.2575 15.9349 1.42168
H 15.6072 16.2816 2.85326
O 5.88926 26.2334 22.1716
H 5.84573 26.9726 21.565
H 6.20488 26.6138 22.9912
O 27.3335 11.757 17.5317
H 26.8378 11.149 16.9832
H 27.3914 11.3207 18.3818
O 31.6109 13.7126 9.73706
H 31.1063 14.0752 10.4652
H 31.6011 14.401 9.072
O 15.8295 7.17984 10.5624
H 15.3534 6.58554 11.1423
H 15.8952 7.99658 11.0572
O 25.5709 13.9196 28.949
H 26.3053 14.511 29.1139
H 24.8042 14.4918 28.9181
O 7.94895 0.827287 16.2449
H 8.67092 32.2927 16.5835
H 8.35843 1.65175 15.9825
O 21.7937 16.1278 19.7551
H 22.2453 16.971 19.7204
H 21.2055 16.2013 20.5067
O 0.711135 23.1753 16.819
H 1.0912 22.3098 16.9695
H 0.6411 23.2444 15.8669
O 18.4291 23.6724 23.0663
H 18.5958 24.5469 22.7147
H 19.2668 23.2167 22.9833
O 26.0064 24.8514 3.69795
H 26.7176 24.9114 3.06001
H 26.4328 24.5677 4.50664
O 19.2768 24.3117 28.3637
H 19.8466 23.5448 28.3044
H 18.4856 23.99 28.7959
O 7.93703 14.7729 7.86297
H 8.77638 15.1294 8.15396
H 8.14726 14.2818 7.06873
O 14.5192 22.5016 12.82
H 14.2002 21.8308 13.4238
H 14.1508 22.2554 11.9715
O 12.9763 26.0914 16.8821
H 13.5881 26.7856 17.127
H 12.6492 26.3525 16.0212
O 5.08527 22.2693 16.3096
H 6.03634 22.3426 16.2301
H 4.79892 21.9306 15.4614
O 13.1417 30.1138 20.897
H 13.4959 29.2246 20.9107
H 13.8979 30.6706 20.7117
O 16.8122 26.8081 9.73929
H 16.0895 26.7262 10.3615
H 17.4889 27.2859 10.219
O 21.4989 24.7316 23.3249
H 22.3119 25.1478 23.0384
H 21.6826 24.4343 24.2161
O 24.8511 22.799 18.184
H 25.5783 22.5291 18.7449
H 24.1024 22.2948 18.5025
O 24.32 8.30933 31.5608
H 25.2514 8.4083 31.3636
H 24.2931 7.68287 32.284
O 16.5143 16.5324 9.93807
H 15.93 17.2822 10.0503
H 16.467 16.3289 9.00396
O 25.9784 7.28233 5.36205
H 25.8803 6.85297 4.5122
H 26.8006 6.93831 5.71125
O 11.9078 24.2936 9.66729
H 11.9109 24.4395 10.6133
H 12.0021 25.168 9.28933
O 8.82199 8.66737 11.7554
H 7.9495 8.49991 11.399
H 8.74693 9.52048 12.1829
O 23.2694 13.7859 19.4076
H 22.732 14.5778 19.4271
H 23.8896 13.9343 18.6937
O 14.5671 12.6256 22.7593
H 14.4745 13.1084 21.938
H 13.6887 12.6282 23.1396
O 26.7477 4.98895 15.1955
H 27.5447 4.46607 15.2829
H 26.0347 4.35932 15.3022
O 26.7579 22.3003 12.3443
H 26.296 21.6981 11.761
H 26.4016 22.1137 13.2129
O 16.5388 22.9037 7.25034
H 16.2696 23.1428 6.36344
H 16.101 22.0691 7.41731
O 21.3096 20.8969 2.33949
H 20.9059 20.039 2.47063
H 20.8327 21.4794 2.93062
O 16.9595 12.0927 19.4217
H 16.7143 11.341 19.9611
H 16.1469 12.5874 19.3157
O 12.1459 16.9007 21.0996
H 12.356 16.3027 21.8169
H 12.0778 17.76 21.5157
O 18.6026 25.3995 5.7639
H 19.048 25.3846 6.61103
H 19.2546 25.0723 5.14415
O 2.63138 6.40895 1.3223
H 2.47637 5.52623 1.65847
H 3.38811 6.31589 0.743563
O 13.7453 10.4715 17.4665
H 13.0011 10.8717 17.0168
H 13.8092 9.59366 17.0904
O 23.9952 27.0301 2.4384
H 24.3504 26.5125 1.71585
H 23.2902 27.5425 2.04263
O 27.384 17.1775 20.0153
H 27.2069 18.0355 20.4008
H 26.8317 16.573 20.5111
O 8.75751 21.8038 31.919
H 8.27914 21.3869 31.2024
H 8.773 21.1446 0.617941
O 28.0137 5.48616 1.3198
H 28.3263 4.58306 1.26531
H 28.2683 5.77576 2.1959
O 12.3494 30 24.496
H 11.6973 29.3601 24.2107
H 12.0042 30.8425 24.2006
O 6.14628 21.3105 24.6277
H 6.68684 22.0401 24.9305
H 5.93958 20.8189 25.4226
O 22.0427 25.7587 27.8365
H 22.4874 25.1136 27.2866
H 21.5358 26.2893 27.222
O 30.1654 9.21845 19.9529
H 29.6037 8.44609 19.8878
H 30.9745 8.89411 20.3483
O 31.2898 11.1795 1.37006
H 30.9674 10.354 1.73178
H 32.0005 11.4374 1.95712
O 18.1268 3.33256 10.8853
H 18.7391 3.9886 11.2183
H 17.7832 2.90498 11.6697
O 4.28358 3.18942 17.5369
H 3.49047 3.35933 18.0452
H 4.27001 2.24538 17.3794
O 19.4666 26.3892 23.0213
H 18.8573 26.1342 23.7141
H 20.2174 25.8066 23.1356
O 15.5584 20.5157 8.71823
H 16.3586 20.2315 9.16013
H 15.134 19.7027 8.44409
O 21.2886 2.56482 13.051
H 22.2043 2.83296 12.9752
H 20.7899 3.33067 12.7664
O 29.6394 3.17675 0.761691
H 30.572 3.35804 0.645719
H 29.5827 2.74734 1.61528
O 20.4287 3.47553 16.0751
H 20.7643 3.63048 15.1922
H 19.6667 4.05043 16.1465
O 23.6565 21.2728 9.64338
H 24.5806 21.2963 9.8917
H 23.2909 20.5458 10.1474
O 3.77383 16.9423 5.84253
H 4.59604 17.2662 5.47472
H 3.10142 17.5067 5.46092
O 23.0597 11.2395 26.6
H 22.166 10.9939 26.3606
H 23.0056 11.467 27.5282
O 12.7543 19.8789 18.3961
H 13.6769 19.6601 18.2651
H 12.7698 20.6899 18.9043
O 25.9674 3.06674 10.0584
H 25.8435 3.85169 10.592
H 26.9148 2.92982 10.0494
O 27.8484 9.54179 14.5979
H 27.0347 9.56991 15.1011
H 28.5076 9.24244 15.224
O 0.897709 11.561 3.62862
H 0.912482 12.415 4.06074
H 32.2304 11.0617 4.10647
O 25.4255 9.47617 7.96522
H 26.3138 9.251 7.68882
H 25.189 10.2288 7.42308
O 10.5693 11.3399 0.807158
H 11.0005 11.0417 1.60799
H 11.2249 11.883 32.3645
O 29.4026 8.43936 16.731
H 28.8027 7.97222 17.3125
H 30.0549 8.82295 17.3171
O 23.1457 25.6032 15.1461
H 23.0874 24.703 14.826
H 23.9852 25.9219 14.8147
O 5.95073 26.4045 28.816
H 5.04987 26.7264 28.7833
H 6.40315 27.0159 29.3971
O 12.2646 15.3557 23.3952
H 13.1997 15.4033 23.5938
H 12.0197 14.455 23.6072
O 26.4898 32.2645 22.8654
H 26.0017 1.06639 22.6576
H 26.7364 32.367 23.7846
O 9.83426 27.5774 0.891361
H 9.32966 28.3105 1.24383
H 9.18546 26.89 0.740419
O 16.7467 7.78725 18.7863
H 17.2794 7.16967 18.2852
H 15.8562 7.65459 18.4615
O 20.261 2.39845 30.1093
H 20.6386 3.21462 30.4372
H 20.7036 2.24782 29.274
O 15.9649 9.50338 1.71834
H 16.8516 9.56834 2.07286
H 15.9913 8.73773 1.14448
O 15.1109 16.3114 23.8035
H 15.5285 16.0674 24.6296
H 15.8267 16.6437 23.2617
O 12.8418 18.9903 14.6591
H 11.9688 19.0732 14.2754
H 12.6954 18.5485 15.4955
O 6.40612 27.9154 10.9979
H 6.33166 28.6877 11.5585
H 7.06797 27.3717 11.4251
O 4.05841 2.07868 29.1333
H 3.85188 1.95321 28.2071
H 3.45625 2.76415 29.4227
O 28.4645 23.6495 20.5637
H 27.8818 24.4055 20.4917
H 29.0218 23.7012 19.7872
O 30.4988 14.0271 21.2006
H 30.2001 13.1397 21.3996
H 30.0874 14.2364 20.3621
O 3.46164 5.73636 5.78539
H 2.70982 6.01195 5.26094
H 3.46944 4.7821 5.71078
O 10.5009 28.1711 23.2417
H 11.0157 27.5389 22.7402
H 9.84017 27.642 23.6886
O 1.74814 9.52794 22.5889
H 1.35773 8.92141 21.9597
H 2.65144 9.22606 22.6845
O 28.2871 28.7299 13.9211
H 29.0316 29.249 14.2254
H 28.4744 27.8414 14.2238
O 29.1063 23.2872 23.1781
H 28.3062 23.1107 23.6729
H 28.8336 23.2542 22.2612
O 25.3816 11.2401 24.9944
H 25.2045 10.8644 24.1321
H 24.5239 11.2857 25.4171
O 8.53527 18.5017 17.2167
H 8.55572 18.3866 16.2667
H 7.70852 18.9534 17.386
O 12.5956 4.94105 32.072
H 13.3998 4.50963 32.3608
H 11.897 4.33243 32.3125
O 15.8596 16.9332 15.9369
H 15.9653 16.1326 16.4508
H 15.6291 17.603 16.5806
O 25.0005 6.4343 8.10056
H 25.3743 5.55505 8.04215
H 25.1593 6.82032 7.23918
O 21.1378 29.4048 14.5433
H 21.8115 29.3465 13.8659
H 20.3432 29.6528 14.0709
O 5.80292 25.2507 17.8208
H 4.90196 25.0021 17.6142
H 6.26334 24.4182 17.9266
O 22.8127 3.14843 10.1161
H 23.1101 3.61638 9.33578
H 21.8581 3.21131 10.0844
O 4.50003 32.1952 21.8729
H 5.21944 31.7643 21.4114
H 4.88819 32.4965 22.6944
O 12.7929 31.4417 9.45575
H 13.0243 32.235 8.97253
H 13.6099 30.9457 9.50808
O 17.7973 24.9762 20.3167
H 17.7646 25.9325 20.343
H 16.9971 24.6963 20.7611
O 11.9988 14.3324 15.4159
H 11.0877 14.5908 15.5553
H 12.1525 14.488 14.484
O 5.76462 17.3197 15.3708
H 6.42391 16.7893 15.8183
H 5.45786 17.9341 16.0377
O 1.84838 22.0383 24.8043
H 2.7072 22.4116 24.6061
H 1.86038 21.1755 24.3902
O 19.8579 7.62214 25.8662
H 20.0191 6.73744 26.1941
H 19.0163 7.8702 26.2488
O 3.81259 26.3094 10.4946
H 3.62701 25.6849 11.1959
H 4.45075 26.9136 10.874
O 3.10537 23.3901 1.89534
H 3.14525 23.2008 2.83279
H 3.90285 22.9999 1.53759
O 27.7161 30.5012 6.9022
H 27.0713 31.1351 7.21623
H 28.4348 31.0364 6.56591
O 5.4436 2.37774 8.27778
H 5.07223 2.50601 9.15063
H 4.70073 2.10683 7.73835
O 14.3026 14.9322 28.259
H 14.9208 15.2862 27.6197
H 14.492 15.4103 29.0663
O 16.9227 21.4936 12.7903
H 16.0668 21.9219 12.7707
H 17.5194 22.1319 12.3995
O 4.71394 30.7199 25.4874
H 4.29163 30.0726 24.9227
H 4.99919 31.4106 24.8892
O 14.7619 29.0207 25.0047
H 14.5955 28.1358 24.6799
H 13.9518 29.4982 24.8261
O 31.809 30.0509 32.2429
H 31.0203 30.5909 32.1917
H 31.8683 29.7993 1.16961
O 15.2226 9.8355 22.1487
H 15.01 10.7307 22.4124
H 16.1731 9.77616 22.2455
O 13.2347 21.6996 21.0935
H 13.9578 22.2525 20.7973
H 12.5128 21.9113 20.5017
O 14.8166 26.359 24.0862
H 14.4187 25.694 24.6481
H 15.7481 26.3317 24.3047
O 9.80318 2.54696 28.3741
H 9.76724 3.47464 28.141
H 9.06624 2.42099 28.9719
O 14.8975 17.0721 20.3938
H 15.1563 17.4655 19.5604
H 14.0143 17.4053 20.5525
O 25.4287 12.9318 31.3927
H 25.151 13.6497 31.9616
H 25.5543 13.3394 30.5358
O 10.9422 16.2923 25.717
H 11.3042 15.5296 26.1681
H 11.278 16.2242 24.8232
O 17.8877 16.1042 18.4037
H 17.7768 17.055 18.4081
H 17.0097 15.761 18.2375
O 9.57004 27.6267 28.6342
H 9.19374 28.4319 28.2788
H 10.1337 27.2961 27.9348
O 32.561 31.0108 29.1024
H 32.0557 30.3228 28.6693
H 1.23573 30.5402 29.5989
O 2.68037 24.5596 12.3593
H 2.14751 24.0972 11.7124
H 2.13254 25.2917 12.6423
O 16.1269 7.08608 32.3638
H 15.7773 7.32449 31.5052
H 17.0763 7.07657 32.2421
O 30.6401 10.061 28.2204
H 30.4917 9.86082 27.2962
H 29.7648 10.0687 28.6078
O 30.1694 4.89504 18.8384
H 30.4905 4.79299 17.9424
H 30.9618 4.95975 19.3714
O 8.8232 27.4447 9.05228
H 8.84859 27.2319 9.98517
H 9.5336 28.0746 8.93041
O 4.63004 31.8695 12.7848
H 5.044 0.597675 13.2561
H 4.3066 32.2646 11.9752
O 29.361 31.4909 29.4487
H 29.8102 32.187 29.9282
H 29.9447 30.7356 29.5192
O 22.8096 19.9095 25.4511
H 21.8865 19.6977 25.3127
H 23.2857 19.1887 25.0388
O 27.8036 18.5788 12.1722
H 28.346 19.3621 12.2644
H 28.1946 17.9441 12.7726
O 15.3933 10.1527 13.8428
H 14.5926 9.63052 13.8931
H 15.7846 10.0765 14.713
O 5.86778 4.69891 13.6669
H 6.57329 5.10951 13.167
H 6.10621 3.77255 13.7021
O 29.108 22.1777 28.6997
H 28.6228 21.7734 29.4189
H 29.4973 22.963 29.0844
O 29.352 31.3512 0.864166
H 29.4381 31.9525 1.60396
H 28.7343 31.7833 32.2692
O 21.7285 14.351 8.7711
H 22.39 14.2233 8.09117
H 20.958 13.8848 8.44682
O 22.8453 32.3046 25.9068
H 22.9146 31.4923 26.4083
H 22.4926 0.94631 26.5286
O 10.0709 5.19626 27.4668
H 10.5506 5.94933 27.8118
H 10.3365 5.14261 26.5488
O 26.6197 30.8375 29.502
H 26.3991 31.4521 28.8021
H 27.5689 30.7322 29.4386
O 7.45587 22.6666 18.2917
H 7.68978 22.7317 19.2176
H 6.99832 21.829 18.2181
O 25.2346 17.0655 10.9487
H 25.9801 17.5475 11.3067
H 24.5584 17.7305 10.8196
O 18.6394 1.37286 1.24385
H 18.1103 1.6666 1.98548
H 18.2873 1.85135 32.4882
O 27.6252 10.5462 19.9396
H 27.5864 11.2926 20.5376
H 28.5219 10.2209 20.0197
O 23.3913 31.7095 20.9281
H 23.4472 31.311 21.7967
H 24.0429 31.2406 20.4067
O 28.5363 10.1919 23.3464
H 27.6493 10.5501 23.3136
H 28.4225 9.25448 23.1897
O 28.79 6.45156 6.03056
H 29.4343 5.77617 6.24266
H 29.195 7.26901 6.3204
O 27.4819 24.5716 10.7619
H 27.1369 23.9732 11.4245
H 26.7655 24.6748 10.1354
O 11.4401 28.4294 30.6793
H 10.9356 28.3017 29.8759
H 10.8838 28.072 31.3714
O 19.1175 9.75456 7.9875
H 18.5862 10.5056 7.72316
H 18.4801 9.08715 8.24145
O 5.70682 5.99642 17.3648
H 5.36374 6.22919 18.2276
H 5.07524 5.36667 17.0173
O 13.7078 3.04082 20.8682
H 13.6103 2.53912 21.6775
H 13.5686 2.40035 20.1706
O 11.5862 19.5656 2.09809
H 11.9602 18.7059 1.90484
H 12.1844 20.1865 1.68216
O 3.66302 14.0007 5.96556
H 4.45618 13.503 5.76709
H 3.88774 14.906 5.7507
O 19.3614 22.4307 7.30781
H 18.4714 22.7787 7.25313
H 19.6581 22.3867 6.39883
O 6.97586 8.07674 16.0153
H 6.45488 7.46861 16.5397
H 7.77537 7.59225 15.8097
O 27.1842 15.1112 0.640222
H 27.6176 14.4621 1.19428
H 26.6611 15.6343 1.24767
O 30.8068 11.5943 18.8622
H 30.5812 10.837 19.4023
H 31.4275 12.0922 19.3942
O 17.3266 15.3174 31.3147
H 16.3834 15.4624 31.3891
H 17.7069 16.1956 31.3367
O 19.938 5.96889 7.9181
H 20.8184 5.80295 8.2552
H 19.6507 5.12428 7.57119
O 25.4613 25.9245 32.3621
H 26.3361 25.5792 32.54
H 25.5738 26.875 32.3625
O 3.94149 16.8415 8.61291
H 3.7773 16.9995 7.68321
H 3.40564 16.0772 8.82479
O 23.2143 19.6879 28.028
H 23.0701 19.7885 27.0871
H 23.3018 20.5835 28.3545
O 10.4819 30.7781 1.95993
H 9.65366 30.5395 1.54357
H 10.741 31.5928 1.52932
O 15.9642 13.4239 12.2547
H 16.3349 12.5451 12.1741
H 15.8567 13.5536 13.197
O 10.6605 4.71323 3.26689
H 11.3299 5.37019 3.45816
H 10.4523 4.32793 4.11802
O 8.54346 22.4336 3.69116
H 8.69944 21.6319 3.19205
H 7.8257 22.8676 3.22996
O 5.96722 29.3983 22.5719
H 6.42646 28.8488 23.2071
H 5.04716 29.1494 22.6602
O 21.5638 28.5305 21.832
H 20.6537 28.8205 21.8945
H 22.0535 29.1615 22.3597
O 30.7229 2.75251 28.8219
H 31.4558 3.33059 28.6102
H 31.0517 2.19713 29.5288
O 11.2997 5.77556 13.6616
H 12.0982 6.15702 13.2967
H 10.9076 5.2961 12.9318
O 17.9636 28.0217 5.38097
H 18.0898 27.1057 5.62827
H 17.1959 28.0125 4.80935
O 29.4483 24.2849 30.4017
H 29.0212 25.0983 30.133
H 29.1713 24.1567 31.3089
O 17.8341 4.3484 0.727659
H 17.9806 3.88487 31.898
H 18.2119 5.21633 0.585467
O 3.65575 10.5055 17.0344
H 3.00453 10.9148 16.4646
H 4.32486 11.179 17.1566
O 20.9372 21.2848 13.4633
H 20.3863 21.2202 14.2433
H 20.489 21.92 12.9048
O 13.809 24.5044 29.7594
H 14.6516 24.0661 29.6404
H 13.1909 23.9779 29.2525
O 11.048 32.2615 23.5592
H 10.8045 0.755467 24.3453
H 11.9721 32.4705 23.4233
O 30.0202 4.28176 23.9777
H 29.1228 4.18122 24.2951
H 30.0072 5.09626 23.475
O 16.0803 11.827 25.168
H 15.2469 12.2223 24.9121
H 16.3224 12.2795 25.976
O 14.8252 26.2495 11.6501
H 14.2118 25.5595 11.9028
H 14.324 27.0602 11.7382
O 16.1755 29.8538 17.3445
H 16.9838 30.001 17.8356
H 16.4561 29.3961 16.552
O 2.88718 14.2058 12.3974
H 2.43908 13.9321 13.1977
H 2.44443 15.0141 12.1389
O 4.85758 19.3182 9.51111
H 4.74256 19.7707 8.6755
H 4.63153 18.4071 9.32378
O 21.3107 15.377 12.8109
H 21.3873 15.7585 11.9364
H 21.6997 16.03 13.3926
O 17.4514 19.6339 10.4817
H 17.9631 20.3128 10.9215
H 16.8075 19.3582 11.1341
O 20.1363 25.006 8.02223
H 19.7279 24.1608 7.83505
H 21.0687 24.8632 7.8593
O 23.0659 19.111 11.1395
H 22.1763 18.9639 11.461
H 23.4446 19.7352 11.7585
O 12.3095 31.8902 12.0105
H 11.5784 32.5033 12.0863
H 12.4359 31.7826 11.0678
O 6.05046 21.2587 5.22298
H 5.86746 21.4075 4.29528
H 6.5215 20.4257 5.24413
O 23.462 4.34371 27.3979
H 22.8045 3.64827 27.4148
H 22.9658 5.13842 27.2018
O 8.69326 3.22434 15.7837
H 9.46992 3.67324 15.4498
H 8.48654 3.67809 16.6008
O 15.7068 4.23997 18.143
H 16.4375 4.62489 17.6592
H 14.989 4.21068 17.5104
O 21.9144 24.4213 30.6501
H 21.6878 24.6374 29.7456
H 21.254 24.8714 31.177
O 1.41179 17.3647 19.1135
H 0.675933 17.068 18.5781
H 2.11327 17.5341 18.4847
O 18.8287 4.75697 22.6893
H 19.7446 4.86534 22.9456
H 18.6248 3.84729 22.9064
O 0.904047 23.5183 14.1586
H 0.618004 22.6501 13.8746
H 1.6784 23.7018 13.6267
O 12.8683 9.26417 13.2704
H 12.7698 10.216 13.2481
H 12.645 8.97893 12.3844
O 26.8592 13.6674 6.76057
H 26.805 14.4717 7.27663
H 26.955 13.968 5.85687
O 20.4639 24.9361 3.27574
H 20.055 24.0835 3.42455
H 20.475 25.034 2.32363
O 10.0052 22.2305 24.6238
H 10.2664 21.8029 25.4394
H 9.1415 22.598 24.8115
O 9.98363 30.4058 6.62845
H 10.4907 30.4424 5.81738
H 10.5705 29.9897 7.25982
O 14.5324 29.7603 28.5909
H 14.128 29.9135 29.4449
H 14.7546 30.6345 28.2704
O 27.6766 19.6195 24.1321
H 27.4831 18.991 24.8277
H 27.1887 20.4059 24.3766
O 18.6983 26.7929 14.8462
H 18.1835 27.4918 14.4427
H 18.9314 27.1344 15.7095
O 12.2656 1.12341 19.281
H 11.6144 1.82399 19.2445
H 11.7665 32.3392 19.5262
O 13.0177 5.44797 20.0266
H 12.786 5.23954 19.1216
H 13.0113 4.60317 20.4767
O 6.52634 23.7358 29.4887
H 6.38812 24.6043 29.1108
H 7.30463 23.4013 29.0431
O 20.7025 8.39196 14.0532
H 19.9956 7.76231 14.1948
H 21.4314 8.05573 14.5745
O 15.2151 20.5969 3.26918
H 15.318 19.8314 3.8346
H 16.0826 21.0012 3.25233
O 17.9925 2.09624 23.2767
H 18.563 1.88475 24.0156
H 18.3461 1.58735 22.5471
O 1.64558 6.89662 4.04405
H 1.91059 7.81636 4.03464
H 1.8829 6.5696 3.17632
O 26.0033 2.52303 18.1273
H 25.2875 2.1855 17.5888
H 26.3246 1.75881 18.6058
O 15.8645 15.7434 7.35886
H 15.1742 15.1329 7.61784
H 15.695 15.9186 6.43322
O 15.8356 0.787801 24.4966
H 15.9591 0.864255 25.4427
H 16.4662 1.40264 24.1217
O 19.3354 26.9005 27.2178
H 18.7445 27.5896 27.5215
H 19.3553 26.2678 27.9358
O 19.4496 10.7874 10.4894
H 19.3354 10.5116 9.57991
H 19.8239 10.0227 10.9268
O 9.14628 17.8983 10.2193
H 9.46326 17.1107 10.6615
H 9.83193 18.1104 9.58595
O 15.7945 27.9686 7.4524
H 16.4368 27.8713 6.74942
H 16.196 27.5358 8.2059
O 32.4818 21.1094 30.8071
H 0.593354 21.8299 30.186
H 32.4723 21.5323 31.6658
O 13.1993 13.8003 3.88061
H 13.7545 14.5324 4.14896
H 12.4428 13.846 4.46535
O 18.7924 9.13891 19.9865
H 19.24 9.50966 19.226
H 18.1717 8.51083 19.617
O 0.639212 5.08181 11.8579
H 1.006 4.42254 12.447
H 0.877288 4.7795 10.9814
O 23.6962 8.562 12.1142
H 22.9437 9.1122 11.8968
H 24.2979 8.67683 11.3787
O 30.9969 3.64419 8.79752
H 30.1722 3.26739 9.10415
H 30.9794 4.54811 9.11191
O 11.4261 26.4812 27.1052
H 11.1497 26.5394 26.1906
H 12.3634 26.674 27.0854
O 18.831 3.81773 19.9562
H 18.7049 4.23682 20.8075
H 18.2726 3.04086 19.9861
O 16.4784 7.68421 5.93797
H 16.3782 7.52611 6.87669
H 17.3999 7.4962 5.75995
O 5.81889 1.49293 31.6947
H 6.11661 2.00563 30.9432
H 5.21457 0.850555 31.3227
O 6.78383 9.38391 20.4495
H 7.13193 9.17726 21.3169
H 6.34792 8.57958 20.168
O 16.687 11.8719 4.73817
H 15.9993 11.2794 4.43459
H 16.6947 11.7634 5.68918
O 27.9752 0.628595 18.817
H 28.7669 1.16254 18.7501
H 27.7925 32.3515 17.9176
O 17.5406 4.19821 26.7697
H 16.883 4.31142 26.0835
H 17.0886 4.4412 27.5777
O 31.4624 12.7231 16.5137
H 32.0514 12.1079 16.0768
H 31.1181 12.2355 17.262
O 2.46599 19.4957 27.8625
H 2.90364 18.9633 27.1981
H 1.73016 18.9577 28.1546
O 8.30233 14.6712 31.4907
H 7.70742 14.612 30.7432
H 9.17197 14.5281 31.1172
O 23.3868 16.5299 14.5396
H 23.855 15.9645 13.9254
H 24.0218 17.2063 14.7751
O 21.9891 4.76811 30.4761
H 22.7534 4.23937 30.247
H 22.058 5.54355 29.9192
O 3.51283 27.4374 28.7905
H 3.25108 26.966 29.5814
H 2.70764 27.5126 28.2784
O 32.079 18.4547 25.8061
H 0.727492 19.1475 25.6566
H 32.0801 18.3268 26.7547
O 15.1698 23.1745 18.7937
H 15.6723 23.8516 18.3406
H 15.5322 22.3498 18.4702
O 8.20638 10.2316 14.432
H 7.60187 10.8569 14.0324
H 7.64752 9.51278 14.7274
O 1.73364 3.70749 9.73384
H 2.13482 4.34379 9.14189
H 0.887317 3.50783 9.33371
O 23.0352 7.53974 15.5372
H 23.6783 8.18703 15.8265
H 23.0462 6.86889 16.2199
O 2.87494 24.8274 17.8788
H 2.20237 24.4053 17.3443
H 2.42849 25.5716 18.2826
O 8.75179 31.6529 11.3062
H 8.93106 31.9827 10.4257
H 9.26033 32.2221 11.8838
O 0.719732 15.2135 28.2447
H 0.806726 15.1766 27.2922
H 0.731293 16.1482 28.4507
O 0.812519 25.7382 7.02129
H 32.3917 26.3149 6.38037
H 1.71678 25.6553 6.71853
O 12.6136 23.4054 23.3247
H 12.9108 22.7552 22.6881
H 11.7797 23.0626 23.6463
O 1.64141 29.6571 24.6853
H 0.754232 29.3161 24.7988
H 1.65448 30.4667 25.1958
O 6.2162 30.078 2.79658
H 5.53455 30.5542 2.32242
H 5.94763 29.1606 2.74586
O 31.1842 16.3779 17.6678
H 30.8774 15.5191 17.9584
H 31.6286 16.2057 16.8377
O 14.2677 3.40316 15.9524
H 13.4931 3.66628 16.4494
H 14.6093 4.22053 15.5899
O 31.7526 29.7925 5.88963
H 30.8774 29.7161 5.50958
H 31.8826 30.7337 6.00554
O 19.2076 27.782 17.675
H 19.7287 28.5752 17.55
H 19.7657 27.2086 18.2002
O 23.337 22.1224 23.6542
H 23.2046 21.2858 24.1
H 23.2893 22.7762 24.3518
O 22.6572 21.7532 19.145
H 21.9834 22.3385 19.4909
H 22.3502 20.8747 19.3693
O 32.3919 20.0483 19.7659
H 32.4474 19.2625 19.2222
H 32.1446 19.724 20.6319
O 1.52197 12.5869 25.4845
H 0.718049 12.1485 25.2056
H 1.41741 13.4911 25.1884
O 28.6834 29.3003 17.9518
H 27.9194 29.289 18.5283
H 28.8877 28.3766 17.806
O 22.1639 19.0145 31.4155
H 22.6294 18.406 31.9894
H 21.9139 18.486 30.6576
O 6.77786 9.73026 4.32734
H 6.34172 8.93297 4.62792
H 7.7103 9.55724 4.45713
O 28.6323 10.1647 25.9726
H 28.7164 10.0278 25.029
H 28.2769 9.33997 26.304
O 12.5322 11.7606 12.1884
H 11.5836 11.6699 12.2789
H 12.6548 12.6287 11.8042
O 31.1043 15.9383 8.20792
H 31.6945 16.6475 8.46238
H 30.2269 16.2938 8.34945
O 18.6539 3.73538 7.13207
H 18.6455 3.13346 6.38786
H 17.734 3.81976 7.38283
O 20.6716 10.6394 1.16179
H 21.6165 10.6707 1.31109
H 20.2901 10.6278 2.03964
O 11.826 14.2973 27.0479
H 12.0035 13.7582 26.2771
H 12.6717 14.3695 27.4903
O 5.14999 12.1543 20.9724
H 4.32625 11.9105 21.3946
H 5.78229 11.5095 21.2897
O 11.6373 4.39586 6.73096
H 11.0986 5.11126 6.39292
H 11.1334 4.0415 7.46357
O 6.1414 27.4281 19.5742
H 5.98414 26.5662 19.1887
H 6.87733 27.7833 19.0757
O 17.9618 26.815 2.25326
H 17.1248 26.375 2.10468
H 18.4691 26.6396 1.46073
O 10.5513 15.9243 8.33709
H 10.9506 16.7198 7.98505
H 11.2439 15.5187 8.85868
O 22.6061 8.67145 23.5535
H 22.3438 7.9654 24.1442
H 22.1253 9.43753 23.8668
O 11.9799 8.12989 15.6409
H 12.2376 8.81596 15.0252
H 11.6786 7.41038 15.0861
O 5.10244 27.4027 2.47085
H 5.45617 26.9846 3.25591
H 5.27603 26.7775 1.7671
O 29.2437 11.3004 4.69066
H 29.8188 11.888 5.18082
H 29.7508 10.4944 4.5934
O 26.3131 22.1254 20.2382
H 27.1096 22.6371 20.3796
H 26.4699 21.3039 20.7037
O 13.6596 14.0413 10.8898
H 14.4916 13.785 11.2877
H 13.8008 13.9357 9.94903
O 32.222 18.4722 6.55963
H 31.3235 18.1991 6.37434
H 0.690395 18.3515 5.73075
O 29.3262 4.09522 14.906
H 29.4997 3.15815 14.8164
H 29.5044 4.45644 14.0377
O 15.3519 5.21233 5.32301
H 15.0887 5.2969 4.40661
H 15.7047 6.07225 5.5517
O 20.8913 18.2064 29.0276
H 21.1799 17.3588 28.6893
H 21.6119 18.8033 28.8259
O 14.7794 27.6348 18.2771
H 14.812 27.5849 19.2324
H 15.2155 28.4599 18.0648
O 16.571 24.2456 26.742
H 16.4806 24.3453 27.6897
H 15.7084 23.9528 26.4481
O 30.7972 9.25389 11.3418
H 30.2938 9.97998 11.7099
H 31.3229 8.93094 12.0737
O 26.0922 8.4401 20.6991
H 25.3752 8.8123 21.2126
H 26.6851 9.17586 20.5463
O 5.95055 12.8755 10.4907
H 5.79786 12.6226 9.58024
H 5.91777 13.8321 10.4829
O 4.42717 3.43629 10.9488
H 4.62456 3.89721 11.7641
H 3.69759 3.92477 10.5675
O 4.71829 6.34154 28.5774
H 4.31854 7.15243 28.263
H 5.55029 6.28613 28.1074
O 5.70162 25.7479 26.257
H 6.3194 25.0415 26.0683
H 5.90521 26.0113 27.1544
O 22.9289 23.2314 13.8546
H 22.9259 23.5413 12.949
H 22.2336 22.5743 13.8857
O 18.3061 30.4996 1.92602
H 17.6986 30.2381 1.23397
H 18.519 31.4113 1.72667
O 0.596851 8.03659 20.5716
H 32.444 7.09588 20.669
H 1.46495 8.10331 20.1739
O 26.3645 2.8088 3.58195
H 25.5847 3.28157 3.29089
H 26.259 1.92782 3.22283
O 31.3159 13.142 13.3044
H 32.0157 13.4744 13.8666
H 30.8998 13.9274 12.9493
O 0.834956 15.7396 25.2724
H 1.42899 15.6548 24.5266
H 0.623065 16.6725 25.3056
O 16.702 13.7726 14.9534
H 17.4837 13.8225 14.4033
H 16.7934 12.9451 15.4258
O 19.5803 14.0054 26.7751
H 20.3384 13.8297 26.2177
H 18.9685 14.474 26.2074
O 13.268 1.33772 4.1278
H 13.5706 1.11161 3.24829
H 13.8797 2.01066 4.42645
O 4.32399 19.0721 22.4338
H 4.00453 18.2797 22.0022
H 3.63063 19.3052 23.0511
O 32.4385 11.001 9.90201
H 31.8774 10.3544 10.3302
H 31.913 11.8009 9.8849
O 7.24096 23.7123 1.66609
H 6.42573 23.7414 1.1653
H 7.84071 23.2051 1.119
O 6.15402 18.2086 5.15961
H 6.88115 18.0496 4.55776
H 6.51181 18.0123 6.02544
O 29.2598 14.4639 18.7951
H 29.3123 13.5181 18.6574
H 28.8383 14.7987 18.0036
O 27.0599 20.4134 30.2233
H 26.3208 20.5133 30.8234
H 26.7342 19.8318 29.5363
O 22.8455 6.52433 25.8912
H 23.7064 6.42687 25.4843
H 22.9667 7.20999 26.548
O 1.25041 6.82681 25.7584
H 1.51937 6.35407 24.9708
H 2.01736 7.34593 26.0004
O 30.2186 6.54941 22.5035
H 30.9872 6.13713 22.1092
H 30.5715 7.28306 23.0069
O 20.6018 20.9281 16.9195
H 21.106 20.1216 16.8123
H 20.18 20.8357 17.7737
O 12.3603 19.369 22.6497
H 12.6455 19.9073 21.9114
H 13.0125 19.5315 23.3312
O 9.95635 29.5728 14.9478
H 10.4654 29.5509 15.7581
H 9.72774 28.658 14.7833
O 14.3529 16.773 13.8202
H 14.6077 16.8306 14.7411
H 13.666 17.432 13.7196
O 14.3898 11.2052 8.04311
H 14.2211 11.0902 8.97828
H 14.1378 12.111 7.86343
O 20.8805 13.7478 29.8165
H 19.9983 13.3769 29.8363
H 20.8871 14.3101 29.0419
O 16.7516 30.5403 4.39188
H 17.0199 30.6199 3.47651
H 17.2165 29.7672 4.71184
O 9.52784 22.8328 9.31524
H 8.77429 23.2358 9.74652
H 10.268 23.3904 9.5549
O 11.3488 14.7099 2.05569
H 11.6178 14.3542 1.2087
H 12.0956 14.5476 2.63213
O 29.753 13.6961 26.8939
H 30.6288 13.4801 27.2141
H 29.8844 14.4602 26.3324
O 31.2431 28.5234 24.7053
H 31.1706 28.1306 23.8355
H 30.6808 27.9831 25.2603
O 22.1611 28.7575 1.36361
H 21.7396 28.4762 32.5464
H 22.5364 29.6131 1.15535
O 23.5154 31.0583 13.9594
H 23.9422 31.0609 14.8162
H 23.9342 31.7736 13.4806
O 17.3174 22.3068 2.9546
H 18.0803 22.1319 3.50561
H 17.6835 22.4947 2.0904
O 13.9049 30.7848 4.78202
H 13.6491 31.6823 4.56912
H 14.8616 30.8062 4.80209
O 11.3052 29.6962 4.43923
H 12.2254 29.9593 4.42516
H 10.953 30.0102 3.6064
O 24.9955 15.0658 12.8452
H 24.9416 15.5928 12.048
H 25.9004 14.7544 12.8663
O 3.76336 21.5507 13.911
H 3.84154 21.4139 12.9668
H 2.82051 21.5966 14.0696
O 8.2893 12.9212 5.63003
H 8.76874 12.2009 6.03936
H 8.37528 12.7631 4.6899
O 6.13013 12.1391 13.3371
H 6.01483 12.3067 12.4018
H 5.31706 11.7117 13.6064
O 18.9041 6.18719 29.5804
H 18.5593 6.85038 28.9825
H 19.4364 5.61722 29.0255
O 3.01729 23.4389 8.11495
H 2.30256 23.6717 8.70759
H 3.22503 24.2538 7.65782
O 4.77727 8.79941 14.7115
H 4.49822 9.118 15.5699
H 5.60098 8.34235 14.8813
O 6.59256 30.5541 29.9939
H 5.88394 30.5695 29.3506
H 6.42568 29.7694 30.516
O 8.02152 12.8239 2.73732
H 7.22102 13.3341 2.85996
H 8.65383 13.4502 2.38512
O 26.0245 28.1486 29.4314
H 26.1611 29.0945 29.3773
H 26.8709 27.7994 29.7105
O 26.5409 3.71423 20.5001
H 26.3187 3.49154 19.5961
H 26.8701 4.61176 20.4522
O 30.8996 13.1561 6.42919
H 30.2849 13.3042 7.14779
H 31.6058 12.6413 6.81976
O 9.93641 21.2751 11.8531
H 9.00181 21.4273 11.7133
H 10.3239 21.343 10.9805
O 19.1271 0.775225 21.0368
H 19.8736 1.13846 20.5603
H 18.617 32.3108 20.3696
O 28.0016 2.85578 5.85477
H 27.3088 3.24174 6.39072
H 27.5964 2.7233 4.99775
O 1.58875 30.3476 15.1174
H 1.2331 31.1747 14.7924
H 2.28019 30.1226 14.4949
O 12.417 26.5465 1.47991
H 12.92 27.2961 1.7982
H 11.5217 26.8753 1.39875
O 20.8072 30.3615 4.46254
H 21.699 30.6148 4.70073