LAMMPS (22 Aug 2018)
Reading data file ...
  orthogonal box = (0 0 0) to (33.2616 33.2616 33.2616)
  4 by 4 by 8 MPI processor grid
  reading atoms ...
  3108 atoms
  scanning bonds ...
  2 = max bonds/atom
  scanning angles ...
  1 = max angles/atom
  reading bonds ...
  2000 bonds
  reading angles ...
  1000 angles
Finding 1-2 1-3 1-4 neighbors ...
  special bond factors lj:   0          0          0         
  special bond factors coul: 0          0          0         
  2 = max # of 1-2 neighbors
  1 = max # of 1-3 neighbors
  1 = max # of 1-4 neighbors
  2 = max # of special neighbors
Setting atom values ...
  1000 settings made for charge
Setting atom values ...
  2000 settings made for charge
Setting atom values ...
  54 settings made for charge
Setting atom values ...
  54 settings made for charge
1000 atoms in group wat
54 atoms in group K
54 atoms in group Cl
PPPM initialization ...
  extracting TIP4P info from pair style
  using 12-bit tables for long-range coulomb (../kspace.cpp:321)
  G vector (1/distance) = 0.31234
  grid = 32 32 32
  stencil order = 5
  estimated absolute RMS force accuracy = 0.00308625
  estimated relative force accuracy = 9.29416e-06
  using double precision FFTs
  3d grid and FFT values/proc = 2475 256
Neighbor list info ...
  update every 1 steps, delay 0 steps, check yes
  max neighbors/atom: 2000, page size: 100000
  master list distance cutoff = 12.3092
  ghost atom cutoff = 12.3092
  binsize = 6.1546, bins = 6 6 6
  1 neighbor lists, perpetual/occasional/extra = 1 0 0
  (1) pair lj/cut/tip4p/long, perpetual
      attributes: half, newton on
      pair build: half/bin/newton
      stencil: half/bin/3d/newton
      bin: standard
Setting up cg style minimization ...
  Unit style    : real
  Current step  : 0
Per MPI rank memory allocation (min/avg/max) = 8.194 | 8.256 | 8.457 Mbytes
Step Temp E_pair E_mol TotEng Press 
       0            0   -565.39678 3.3187846e-05   -565.39674    21269.409 
     874            0   -19468.359    375.02341   -19093.336   -4721.0405 
Loop time of 1.25814 on 128 procs for 874 steps with 3108 atoms

99.0% CPU use with 128 MPI tasks x no OpenMP threads

Minimization stats:
  Stopping criterion = energy tolerance
  Energy initial, next-to-last, final = 
        -565.396744437     -19093.3171802     -19093.3357526
  Force two-norm initial, final = 1453.42 9.20238
  Force max component initial, final = 210.658 2.72238
  Final line search alpha, max atom move = 0.0105153 0.0286266
  Iterations, force evaluations = 874 1564

MPI task timing breakdown:
Section |  min time  |  avg time  |  max time  |%varavg| %total
---------------------------------------------------------------
Pair    | 0.18552    | 0.31284    | 0.48485    |  11.2 | 24.87
Bond    | 0.0010407  | 0.0014311  | 0.0018738  |   0.5 |  0.11
Kspace  | 0.53183    | 0.71132    | 0.8411     |   7.5 | 56.54
Neigh   | 0.0055826  | 0.0057275  | 0.0058259  |   0.1 |  0.46
Comm    | 0.13785    | 0.15541    | 0.17521    |   2.4 | 12.35
Output  | 0          | 0          | 0          |   0.0 |  0.00
Modify  | 0          | 0          | 0          |   0.0 |  0.00
Other   |            | 0.07141    |            |       |  5.68

Nlocal:    24.2812 ave 36 max 13 min
Histogram: 4 7 8 18 25 25 27 7 6 1
Nghost:    2603.73 ave 2678 max 2560 min
Histogram: 18 32 31 11 3 1 0 6 11 15
Neighs:    8051.4 ave 12976 max 3934 min
Histogram: 9 7 14 19 25 27 11 11 4 1

Total # of neighbors = 1030579
Ave neighs/atom = 331.589
Ave special neighs/atom = 1.9305
Neighbor list builds = 19
Dangerous builds = 0
Finding SHAKE clusters ...
  0 = # of size 2 clusters
  0 = # of size 3 clusters
  0 = # of size 4 clusters
  1000 = # of frozen angles
PPPM initialization ...
  extracting TIP4P info from pair style
  using 12-bit tables for long-range coulomb (../kspace.cpp:321)
  G vector (1/distance) = 0.31234
  grid = 32 32 32
  stencil order = 5
  estimated absolute RMS force accuracy = 0.00308625
  estimated relative force accuracy = 9.29416e-06
  using double precision FFTs
  3d grid and FFT values/proc = 2475 256
Setting up Verlet run ...
  Unit style    : real
  Current step  : 0
  Time step     : 0.001
Per MPI rank memory allocation (min/avg/max) = 7.944 | 8.116 | 8.208 Mbytes
Step Temp E_pair E_mol TotEng Press Volume 
       0    439.43332   -19468.359            0   -16708.469    1309539.1    36798.407 
   10000    173.58936   -17851.357            0   -16761.117    1602.0323    36666.337 
Loop time of 9.36158 on 128 procs for 10000 steps with 3108 atoms

Performance: 0.092 ns/day, 260.044 hours/ns, 1068.196 timesteps/s
99.4% CPU use with 128 MPI tasks x no OpenMP threads

MPI task timing breakdown:
Section |  min time  |  avg time  |  max time  |%varavg| %total
---------------------------------------------------------------
Pair    | 1.0752     | 2.358      | 3.9592     |  37.4 | 25.19
Bond    | 0.00089805 | 0.0010784  | 0.001778   |   0.4 |  0.01
Kspace  | 3.1603     | 4.8128     | 6.1105     |  26.4 | 51.41
Neigh   | 0          | 0          | 0          |   0.0 |  0.00
Comm    | 0.79883    | 0.92904    | 1.0678     |   6.7 |  9.92
Output  | 8.589e-05  | 8.7222e-05 | 9.0698e-05 |   0.0 |  0.00
Modify  | 1.0686     | 1.1411     | 1.1917     |   2.6 | 12.19
Other   |            | 0.1195     |            |       |  1.28

Nlocal:    24.2812 ave 36 max 13 min
Histogram: 4 7 8 18 25 25 27 7 6 1
Nghost:    2603.51 ave 2678 max 2560 min
Histogram: 18 33 30 12 2 1 0 6 13 13
Neighs:    8051.38 ave 12977 max 3934 min
Histogram: 9 7 14 19 25 27 11 11 4 1

Total # of neighbors = 1030577
Ave neighs/atom = 331.588
Ave special neighs/atom = 1.9305
Neighbor list builds = 0
Dangerous builds = 0
PPPM initialization ...
  extracting TIP4P info from pair style
  using 12-bit tables for long-range coulomb (../kspace.cpp:321)
  G vector (1/distance) = 0.312425
  grid = 32 32 32
  stencil order = 5
  estimated absolute RMS force accuracy = 0.0030753
  estimated relative force accuracy = 9.26118e-06
  using double precision FFTs
  3d grid and FFT values/proc = 2475 256
Setting up Verlet run ...
  Unit style    : real
  Current step  : 10000
  Time step     : 0.01
Per MPI rank memory allocation (min/avg/max) = 7.944 | 8.118 | 8.208 Mbytes
Step Temp E_pair E_mol TotEng Press Volume 
   10000    173.58936   -17851.357            0   -16761.117    -40832.44    36666.337 
   20000    298.60551   -16619.638            0   -14744.226    -900.9492    37382.836 
Loop time of 9.34282 on 128 procs for 10000 steps with 3108 atoms

Performance: 0.925 ns/day, 25.952 hours/ns, 1070.340 timesteps/s
99.4% CPU use with 128 MPI tasks x no OpenMP threads

MPI task timing breakdown:
Section |  min time  |  avg time  |  max time  |%varavg| %total
---------------------------------------------------------------
Pair    | 1.0539     | 2.3264     | 3.7764     |  36.3 | 24.90
Bond    | 0.00090633 | 0.0010985  | 0.0019888  |   0.5 |  0.01
Kspace  | 3.2769     | 4.7748     | 6.1216     |  25.6 | 51.11
Neigh   | 0.001276   | 0.0013092  | 0.0013389  |   0.0 |  0.01
Comm    | 0.80428    | 0.92969    | 1.0622     |   6.5 |  9.95
Output  | 8.1281e-05 | 8.5573e-05 | 8.9717e-05 |   0.0 |  0.00
Modify  | 1.1247     | 1.1983     | 1.2434     |   2.6 | 12.83
Other   |            | 0.1111     |            |       |  1.19

Nlocal:    24.2812 ave 36 max 13 min
Histogram: 5 4 4 29 22 24 23 14 0 3
Nghost:    2570.75 ave 2652 max 2518 min
Histogram: 11 22 33 22 7 1 1 10 12 9
Neighs:    7908.21 ave 11715 max 3611 min
Histogram: 3 5 11 18 23 19 19 14 10 6

Total # of neighbors = 1012251
Ave neighs/atom = 325.692
Ave special neighs/atom = 1.9305
Neighbor list builds = 4
Dangerous builds = 0
PPPM initialization ...
  extracting TIP4P info from pair style
  using 12-bit tables for long-range coulomb (../kspace.cpp:321)
  G vector (1/distance) = 0.311965
  grid = 32 32 32
  stencil order = 5
  estimated absolute RMS force accuracy = 0.00313473
  estimated relative force accuracy = 9.44016e-06
  using double precision FFTs
  3d grid and FFT values/proc = 2475 256
Setting up Verlet run ...
  Unit style    : real
  Current step  : 20000
  Time step     : 0.1
Per MPI rank memory allocation (min/avg/max) = 7.944 | 8.124 | 8.208 Mbytes
Step Temp E_pair E_mol TotEng Press Volume 
   20000    298.60551   -16619.638            0   -14744.226   -13460.951    37382.836 
   30000    307.22382   -16574.695            0   -14645.155    438.94928    33393.101 
Loop time of 9.20854 on 128 procs for 10000 steps with 3108 atoms

Performance: 9.383 ns/day, 2.558 hours/ns, 1085.948 timesteps/s
99.4% CPU use with 128 MPI tasks x no OpenMP threads

MPI task timing breakdown:
Section |  min time  |  avg time  |  max time  |%varavg| %total
---------------------------------------------------------------
Pair    | 1.6137     | 2.5417     | 3.4717     |  26.2 | 27.60
Bond    | 0.00092627 | 0.0011099  | 0.0019722  |   0.5 |  0.01
Kspace  | 3.4156     | 4.3639     | 5.2349     |  20.0 | 47.39
Neigh   | 0.014581   | 0.014776   | 0.01497    |   0.1 |  0.16
Comm    | 0.90351    | 1.0071     | 1.1121     |   4.9 | 10.94
Output  | 8.6491e-05 | 8.7956e-05 | 9.0889e-05 |   0.0 |  0.00
Modify  | 1.0807     | 1.1633     | 1.2149     |   2.8 | 12.63
Other   |            | 0.1166     |            |       |  1.27

Nlocal:    24.2812 ave 33 max 12 min
Histogram: 2 1 4 12 21 23 28 23 8 6
Nghost:    2825.67 ave 2852 max 2803 min
Histogram: 6 11 17 17 20 23 13 12 4 5
Neighs:    8804.34 ave 12237 max 4696 min
Histogram: 2 3 9 21 19 22 27 12 8 5

Total # of neighbors = 1126955
Ave neighs/atom = 362.598
Ave special neighs/atom = 1.9305
Neighbor list builds = 49
Dangerous builds = 0
PPPM initialization ...
  extracting TIP4P info from pair style
  using 12-bit tables for long-range coulomb (../kspace.cpp:321)
  G vector (1/distance) = 0.310039
  grid = 30 30 30
  stencil order = 5
  estimated absolute RMS force accuracy = 0.00374077
  estimated relative force accuracy = 1.12652e-05
  using double precision FFTs
  3d grid and FFT values/proc = 2475 256
Setting up Verlet run ...
  Unit style    : real
  Current step  : 30000
  Time step     : 0.2
Per MPI rank memory allocation (min/avg/max) = 7.952 | 8.169 | 8.217 Mbytes
Step Temp E_pair E_mol TotEng Press Volume 
   30000    307.22382   -16574.672            0   -14645.132   -2676.2109    33393.101 
   40000    297.79269   -16809.427            0    -14939.12    171.78622    32860.588 
Loop time of 9.48847 on 128 procs for 10000 steps with 3108 atoms

Performance: 18.212 ns/day, 1.318 hours/ns, 1053.911 timesteps/s
99.4% CPU use with 128 MPI tasks x no OpenMP threads

MPI task timing breakdown:
Section |  min time  |  avg time  |  max time  |%varavg| %total
---------------------------------------------------------------
Pair    | 1.9414     | 2.7093     | 3.5763     |  20.2 | 28.55
Bond    | 0.00092891 | 0.0011153  | 0.0019509  |   0.5 |  0.01
Kspace  | 3.4933     | 4.3706     | 5.1366     |  15.7 | 46.06
Neigh   | 0.029888   | 0.03016    | 0.03038    |   0.1 |  0.32
Comm    | 0.96314    | 1.0503     | 1.1711     |   4.3 | 11.07
Output  | 8.0189e-05 | 8.343e-05  | 8.7924e-05 |   0.0 |  0.00
Modify  | 0.97289    | 1.1793     | 1.2568     |   6.1 | 12.43
Other   |            | 0.1476     |            |       |  1.56

Nlocal:    24.2812 ave 31 max 14 min
Histogram: 1 0 5 11 26 23 9 32 17 4
Nghost:    2867.91 ave 2899 max 2829 min
Histogram: 2 2 6 17 19 26 20 26 7 3
Neighs:    8978.27 ave 11917 max 5717 min
Histogram: 4 5 12 18 17 21 23 13 10 5

Total # of neighbors = 1149218
Ave neighs/atom = 369.761
Ave special neighs/atom = 1.9305
Neighbor list builds = 96
Dangerous builds = 0
PPPM initialization ...
  extracting TIP4P info from pair style
  using 12-bit tables for long-range coulomb (../kspace.cpp:321)
  G vector (1/distance) = 0.310426
  grid = 30 30 30
  stencil order = 5
  estimated absolute RMS force accuracy = 0.00368151
  estimated relative force accuracy = 1.10868e-05
  using double precision FFTs
  3d grid and FFT values/proc = 2475 256
Setting up Verlet run ...
  Unit style    : real
  Current step  : 40000
  Time step     : 0.5
Per MPI rank memory allocation (min/avg/max) = 7.953 | 8.204 | 8.217 Mbytes
Step Temp E_pair E_mol TotEng Press Volume 
   40000    297.79269   -16809.428            0   -14939.121    1896.5465    32860.588 
   50000    293.86511   -16922.099            0    -15076.46   -485.77377    33229.603 
Loop time of 9.48586 on 128 procs for 10000 steps with 3108 atoms

Performance: 45.541 ns/day, 0.527 hours/ns, 1054.201 timesteps/s
99.4% CPU use with 128 MPI tasks x no OpenMP threads

MPI task timing breakdown:
Section |  min time  |  avg time  |  max time  |%varavg| %total
---------------------------------------------------------------
Pair    | 1.9418     | 2.737      | 3.4743     |  18.9 | 28.85
Bond    | 0.00092249 | 0.0011194  | 0.0019193  |   0.5 |  0.01
Kspace  | 3.5343     | 4.2693     | 5.0597     |  15.0 | 45.01
Neigh   | 0.0736     | 0.07416    | 0.074701   |   0.1 |  0.78
Comm    | 1.0036     | 1.0851     | 1.1825     |   4.0 | 11.44
Output  | 7.3436e-05 | 7.4724e-05 | 7.7114e-05 |   0.0 |  0.00
Modify  | 0.96726    | 1.1611     | 1.2372     |   6.0 | 12.24
Other   |            | 0.158      |            |       |  1.67

Nlocal:    24.2812 ave 34 max 15 min
Histogram: 1 3 18 17 27 33 15 8 4 2
Nghost:    2829.97 ave 2862 max 2793 min
Histogram: 1 5 6 15 33 26 17 9 10 6
Neighs:    8845.23 ave 13215 max 5438 min
Histogram: 3 8 20 26 20 28 11 8 3 1

Total # of neighbors = 1132190
Ave neighs/atom = 364.282
Ave special neighs/atom = 1.9305
Neighbor list builds = 239
Dangerous builds = 0
PPPM initialization ...
  extracting TIP4P info from pair style
  using 12-bit tables for long-range coulomb (../kspace.cpp:321)
  G vector (1/distance) = 0.310158
  grid = 30 30 30
  stencil order = 5
  estimated absolute RMS force accuracy = 0.00372257
  estimated relative force accuracy = 1.12104e-05
  using double precision FFTs
  3d grid and FFT values/proc = 2475 256
Setting up Verlet run ...
  Unit style    : real
  Current step  : 0
  Time step     : 2
Per MPI rank memory allocation (min/avg/max) = 8.199 | 8.21 | 8.217 Mbytes
Step Temp E_pair E_mol TotEng Press Volume 
       0    293.86511   -16922.098            0   -15076.459   -1131.7942    33229.603 
   10000    293.46818   -16796.375            0   -14953.229    776.04527    32465.142 
   20000    305.06864   -16814.417            0   -14898.413     35.23564    33124.926 
   30000    299.58729   -16836.573            0   -14954.996    -365.5171    33002.486 
   40000    296.56633   -16900.828            0   -15038.223   -424.39813    32786.416 
   50000    295.26619   -16779.647            0   -14925.208      140.472    32768.102 
   60000    297.68217   -16914.173            0   -15044.561   -141.82255    32854.952 
   70000    293.18741   -16824.518            0   -14983.135    -617.1729    33173.696 
   80000    304.66083   -16840.142            0   -14926.699    646.78144    32532.852 
   90000    299.41621   -16780.331            0   -14899.827   -446.31951    32886.309 
  100000    296.71269   -16850.484            0    -14986.96   -1012.9584    33085.587 
  110000    303.32594   -16883.528            0   -14978.469    339.17022    32330.041 
  120000    307.76276   -16824.314            0    -14891.39   -34.651147    32995.392 
  130000    304.23194   -16864.335            0   -14953.586    673.18491    32975.732 
  140000    295.40405   -16798.443            0   -14943.138     55.27459    32616.409 
  150000    298.81324   -16902.251            0   -15025.534   -473.02845    32578.105 
  160000    296.75032   -16799.718            0   -14935.958   -459.40729    32875.968 
  170000    298.09365   -16715.017            0    -14842.82    102.84945    33001.259 
  180000    306.66912   -16866.626            0    -14940.57    332.21944    32778.114 
  190000     299.8515   -16847.792            0   -14964.555   -160.53568    32846.323 
  200000    293.96554   -16853.233            0   -15006.963    -563.1532    33031.414 
  210000    296.64269   -16815.232            0   -14952.148    -296.3984    32478.976 
  220000    286.67956    -16837.63            0    -15037.12   -259.00005    32775.548 
  230000      304.126   -16743.672            0   -14833.588   -324.83888    32819.711 
  240000    295.46898   -16961.914            0   -15106.201    349.85503     32604.89 
  250000    296.38026    -16846.66            0   -14985.224   -260.26561    32743.249 
  260000    301.73613    -16846.43            0   -14951.356   -368.64468    32846.547 
  270000    294.91512    -16914.28            0   -15062.046    222.65466    32697.864 
  280000    299.32204    -16784.52            0   -14904.608   -69.586645    32977.147 
  290000    293.42754   -16938.725            0   -15095.834    625.92102    32307.566 
  300000    299.81655   -16758.302            0   -14875.284   -441.82915    33031.815 
  310000    293.75471   -16791.193            0   -14946.247    -336.3008    32643.636 
  320000    307.98301   -16799.735            0   -14865.427   -77.347816    33009.887 
  330000    302.02065   -16829.623            0   -14932.762    311.05407    32810.119 
  340000    298.92889   -16854.433            0    -14976.99   -151.79785    32582.477 
  350000    294.56203   -16811.497            0    -14961.48    208.58208     32720.29 
  360000    306.66145   -16831.004            0   -14904.996   -88.794861    32911.942 
  370000    300.17751    -16856.61            0   -14971.325   -517.07818    32962.633 
  380000    292.55823   -16980.682            0    -15143.25   -352.55794    32754.712 
  390000        298.5   -16882.286            0   -15007.537   -317.01405    32393.153 
  400000    303.08916   -16874.203            0   -14970.631    690.50185    32839.071 
  410000    299.32424   -16753.401            0   -14873.475    -208.8829    32905.812 
  420000    299.66941   -16848.862            0   -14966.768    754.63721    32857.021 
  430000    302.80601   -16811.618            0   -14909.825    116.46586    32781.798 
  440000    297.21241   -16881.938            0   -15015.276   -304.69572    32811.314 
  450000     290.1119   -16893.043            0   -15070.976    -689.6477    33046.443 
  460000    303.77737   -16803.299            0   -14895.405    110.14969    32663.818 
  470000    300.77049   -16837.386            0   -14948.377    163.48974    32981.429 
  480000    302.25743   -16866.816            0   -14968.468   -168.31576     33080.01 
  490000    302.65615   -16821.136            0   -14920.284   -203.15932    33151.859 
  500000    294.91498   -16817.028            0   -14964.795    822.83622    32074.767 
  510000    298.57943   -16794.241            0   -14918.993   -698.95741    33191.338 
  520000    296.16894   -16769.812            0   -14909.703   -98.021974    32724.629 
  530000    303.03119   -16865.804            0   -14962.597   -1229.2396    33252.656 
  540000    305.85731   -16844.298            0   -14923.341    163.82861    32961.999 
  550000    296.61399    -16793.73            0   -14930.827    378.82977    32829.009 
  560000     293.3085   -16882.743            0     -15040.6    209.79263    32514.651 
  570000    297.14089   -16820.592            0   -14954.379    434.31843     32577.82 
  580000    301.76883   -16822.931            0   -14927.652   -312.73779    32870.775 
  590000    292.13937    -16855.81            0    -15021.01   -514.73889    32804.268 
  600000    301.33006   -16936.001            0   -15043.477   -136.16253    32846.419 
  610000    297.29456   -16814.135            0   -14946.957   -489.69755    32919.387 
  620000    295.30229   -16792.892            0   -14938.227    282.17995    32650.222 
  630000    282.12262   -16811.904            0   -15040.014   -372.43726    32655.934 
  640000    300.92922   -16896.042            0   -15006.036   -70.017854    32666.991 
  650000    296.63308   -16869.237            0   -15006.213    319.59007     32445.78 
  660000    307.86338   -16875.199            0   -14941.642    -56.86753    33000.296 
  670000    285.23876   -16817.672            0   -15026.211    283.72397     32455.74 
  680000    299.11331   -16771.323            0   -14892.722   -1171.7131    33226.807 
  690000    296.35869   -16789.958            0   -14928.657    328.73686    32809.041 
  700000    303.37716   -16903.323            0   -14997.943     296.6052    32697.458 
  710000    296.74536   -16842.801            0   -14979.072    466.30693    32873.329 
  720000    297.86112    -16875.11            0   -15004.374    724.83863    32585.727 
  730000    297.67321   -16893.106            0    -15023.55   -477.80543    32651.123 
  740000    298.52041   -16881.932            0   -15007.055   -68.586448    32511.054 
  750000    294.91837   -16922.973            0   -15070.719    -421.9008    32859.931 
  760000    303.28854   -16766.131            0   -14861.307   -542.02507    32659.965 
  770000    295.68664   -16770.132            0   -14913.052    108.50324    33168.512 
  780000    296.11116    -16714.94            0   -14855.194   -716.86597    33190.465 
  790000    306.79301   -16881.616            0   -14954.782    511.43065    32543.494 
  800000      297.095   -16874.943            0   -15009.018    348.26893     32629.11 
  810000    293.54434   -16875.089            0   -15031.464    732.97803    32679.342 
  820000    287.72728   -16821.104            0   -15014.013   -592.48086    32725.386 
  830000    292.79342   -16803.843            0   -14964.935   -112.89186    32636.533 
  840000    293.79331   -16920.694            0   -15075.505    110.51414    32952.057 
  850000    300.19928   -16823.565            0   -14938.143    203.79745    32796.562 
  860000    304.49985   -16810.649            0   -14898.217    1.4256927    32509.316 
  870000    308.40709   -16868.261            0    -14931.29   -41.427111    32636.265 
  880000    289.78044   -16966.554            0   -15146.569   -209.72632    32238.473 
  890000    299.92954   -16795.222            0   -14911.494   -474.89653    32852.898 
  900000    300.79814   -16804.811            0   -14915.629    327.41482    32639.226 
  910000    301.46845   -16919.046            0   -15025.653    320.42554    32659.555 
  920000    291.55623   -16851.308            0   -15020.169    227.56837    32803.652 
  930000    291.04303   -16818.119            0   -14990.204   -6.6575649    32748.814 
  940000    298.52113   -16947.077            0   -15072.195   -232.04969    32534.765 
  950000    291.26486   -16846.432            0   -15017.123   -367.56047    32799.532 
  960000    290.67293   -16885.367            0   -15059.776   -224.93311    32682.521 
  970000    288.03572    -16777.88            0   -14968.853   -269.56164     32772.68 
  980000    297.39675   -16937.287            0   -15069.467   -388.69896    33105.603 
  990000    296.40457    -16838.68            0   -14977.091   -165.10486    33217.392 
 1000000    302.63828   -16910.733            0   -15009.993   -281.98745    32854.179 
 1010000    299.68129   -16901.978            0    -15019.81   -553.31981    32728.015 
 1020000    293.58034   -16907.176            0   -15063.325   -281.64377     32845.47 
 1030000    296.63876   -16912.495            0   -15049.435   -402.61656    32627.452 
 1040000    292.86199   -16864.078            0   -15024.739    839.12257    33026.182 
 1050000      295.441   -16820.119            0   -14964.582   -835.48273    32546.001 
 1060000    296.43821   -16843.104            0   -14981.304     235.9523    32308.275 
 1070000    293.48856   -16830.921            0   -14987.646   -686.56738    32831.602 
 1080000    296.86222   -16936.053            0    -15071.59    654.52833    32655.681 
 1090000    293.62636    -16781.05            0    -14936.91    -79.86133    32825.251 
 1100000    309.30056    -16839.54            0   -14896.957   -719.36409    32968.149 
 1110000     297.7821   -16944.458            0   -15074.217   -513.66795     32682.99 
 1120000    301.64314    -16826.85            0    -14932.36      9.71427    32722.465 
 1130000    297.18905   -16893.681            0   -15027.165   -394.77252    33120.523 
 1140000    295.93074   -16855.391            0   -14996.778    485.87644    32407.536 
 1150000    305.07869   -16839.669            0   -14923.602    -398.3525    33335.244 
 1160000    291.10617   -16780.735            0   -14952.423     653.1933    32637.913 
 1170000    301.19157   -16830.743            0   -14939.089   -201.72985    32822.544 
 1180000    300.75424   -16884.402            0   -14995.495   -320.28512    32932.084 
 1190000    303.34599   -16825.193            0   -14920.008   -263.19795    32940.272 
 1200000    298.04023   -16901.331            0   -15029.469    21.897395    32586.319 
 1210000    294.33643   -16805.914            0   -14957.315    593.38451    33073.526 
 1220000    302.86932    -16937.17            0   -15034.979    676.48249    32785.179 
 1230000     302.7358    -16803.17            0   -14901.818   -873.53024     33126.21 
 1240000    299.39899   -16803.799            0   -14923.404   -679.91275      32869.4 
 1250000    300.48119   -16883.974            0   -14996.782    276.83137    32876.974 
 1260000    294.24923   -16867.454            0   -15019.402     284.4741    32722.169 
 1270000    289.43545    -16803.46            0   -14985.642   -83.145845    32442.042 
 1280000    295.20879   -16767.172            0   -14913.094   -661.53941    32910.357 
 1290000    293.44069    -16877.59            0   -15034.616   -514.83662    33083.176 
 1300000    306.43536   -16860.789            0   -14936.201   -472.25813    32984.324 
 1310000    300.10215   -16872.804            0   -14987.992   -218.92852    32751.849 
 1320000    284.86473   -16822.658            0   -15033.546   -316.76267     32491.21 
 1330000    293.29449   -16961.091            0   -15119.036   -38.386422    32646.232 
 1340000    289.10828       -16819            0   -15003.236     104.8793    32649.049 
 1350000    298.28107    -16853.63            0   -14980.256   -143.14839    32769.889 
 1360000    291.13358   -16937.943            0   -15109.459   -470.31006    32733.552 
 1370000    292.98226   -16816.175            0   -14976.081   -111.64142    32853.182 
 1380000    303.71658   -16917.507            0   -15009.995    882.50765    32810.264 
 1390000     299.5368   -16852.942            0   -14971.682    622.87633     32992.88 
 1400000    294.67669   -16859.963            0   -15009.227    130.17739    32788.472 
 1410000    295.32593   -16855.736            0   -15000.922    302.50974    32887.978 
 1420000    300.54301    -16804.72            0    -14917.14   -710.79295      33020.3 
 1430000    294.17534   -16877.673            0   -15030.085   -963.10207    33184.507 
 1440000    297.02911   -16880.127            0   -15014.616    242.98636    32430.441 
 1450000    306.54005   -16881.153            0   -14955.908   -495.24653    32743.786 
 1460000    293.75519   -16924.769            0    -15079.82    382.09069    32668.239 
 1470000     309.1869   -16810.605            0   -14868.736    529.71753    32818.969 
 1480000    299.11781   -16836.266            0   -14957.636   -564.66583    33026.166 
 1490000    294.71098   -16823.053            0   -14972.101    412.34861    32749.329 
 1500000    298.89583   -16821.876            0   -14944.641    91.469129    32511.068 
 1510000    295.41564   -16854.681            0   -14999.303   -24.209891    32570.098 
 1520000    294.40424   -16868.182            0   -15019.157    828.15894    32306.715 
 1530000    298.38624   -16906.249            0   -15032.214    74.747142    32666.951 
 1540000    305.08847   -16865.625            0   -14949.497   -53.947027    32610.624 
 1550000    301.52497   -16813.934            0   -14920.186    46.708018    32552.844 
 1560000    298.42419   -16827.621            0   -14953.348    24.596565     32820.03 
 1570000    293.71034   -16875.472            0   -15030.805    176.68112    32396.037 
 1580000    291.97435   -16875.745            0   -15041.981    99.414531    32578.767 
 1590000    294.97309   -16914.782            0   -15062.184    195.16015    32977.862 
 1600000    303.01254   -16803.263            0   -14900.172    441.03604      32649.8 
 1610000     293.6641   -16819.804            0   -14975.427    229.10811    32644.029 
 1620000    300.24544    -16829.24            0   -14943.529    80.861655    32794.508 
 1630000    297.40632   -16883.334            0   -15015.454   -250.36875     33163.69 
 1640000    300.55805   -16848.423            0   -14960.748    833.18561    32620.417 
 1650000    285.82579    -16818.64            0   -15023.492    265.22026    32664.179 
 1660000    296.81886   -16787.797            0   -14923.606   -339.58342    32825.535 
 1670000    311.88228   -16808.731            0   -14849.934   -355.75636     32988.76 
 1680000    301.86617   -16784.024            0   -14888.134   -284.37685    32696.091 
 1690000    298.51621    -16954.01            0   -15079.159   -207.79593    32886.177 
 1700000    298.19737   -16864.024            0   -14991.176   -814.64194    32932.168 
 1710000    297.23561   -16838.785            0   -14971.977   -860.50577    33019.579 
 1720000    291.07569   -16749.301            0   -14921.181   -636.33915    33041.425 
 1730000    304.18563   -16794.794            0   -14884.336    464.64089    32627.232 
 1740000     294.7789   -16896.023            0   -15044.645   -285.92767    32887.337 
 1750000    305.89905   -16831.951            0   -14910.731   -62.229034    33152.526 
 1760000    294.99992   -16856.942            0   -15004.175   -914.05363    32915.339 
 1770000    296.16487   -16799.159            0   -14939.076   -601.76587     32977.04 
 1780000    299.34971   -16822.309            0   -14942.223    601.09656        32740 
 1790000    303.33816   -16914.739            0   -15009.604    714.16729    32311.279 
 1800000    298.87138   -16826.845            0   -14949.764   -297.85191    33081.553 
 1810000    297.58998   -16904.742            0   -15035.709    576.09455    32563.643 
 1820000    297.92073   -16778.617            0   -14907.506    411.93656    32982.078 
 1830000    294.71306   -16843.073            0   -14992.108   -95.820765    32425.256 
 1840000     299.8545   -16872.048            0   -14988.792    729.90541    32438.775 
 1850000     299.1686   -16935.317            0   -15056.369     431.0844    32724.871 
 1860000    301.74815   -16832.574            0   -14937.425   -77.542219    32679.735 
 1870000    299.74155   -16872.231            0   -14989.684   -178.06734    33073.946 
 1880000    305.44489   -16818.855            0   -14900.488   -114.24449    33257.219 
 1890000    305.03949   -16844.445            0   -14928.624    496.16864    32678.431 
 1900000    294.57596   -16839.858            0   -14989.754   -209.94087    32527.694 
 1910000    295.78545    -16838.82            0    -14981.12   -130.41753    32800.432 
 1920000    300.45744   -16927.613            0    -15040.57    76.155388    32837.814 
 1930000    294.70531   -16872.539            0   -15021.623    618.77668    32726.865 
 1940000    301.34853   -16844.493            0   -14951.853    96.044057    32891.056 
 1950000    290.78652   -16886.382            0   -15060.078   -512.84187    33049.994 
 1960000    298.46761   -16715.801            0   -14841.255   -227.86171    32883.049 
 1970000    293.16643   -16908.758            0   -15067.507    30.711674     32646.33 
 1980000      305.319   -16901.841            0   -14984.265   -613.38271    32854.751 
 1990000    291.95865   -16862.656            0    -15028.99    315.05608    32393.841 
 2000000    301.33688   -16780.957            0   -14888.391    615.47881    32685.417 
 2010000    294.19306   -16899.989            0    -15052.29   -208.22391    32489.464 
 2020000     291.7111   -16825.091            0    -14992.98    1009.1915    32497.814 
 2030000    301.26328   -16854.497            0   -14962.393    384.41512    32479.153 
 2040000    290.49162   -16885.422            0    -15060.97    379.06759    32531.602 
 2050000    294.36586   -16897.275            0    -15048.49    752.03395     32528.62 
 2060000    300.08612   -16825.033            0   -14940.322     196.3696    32676.888 
 2070000    292.51795    -16837.67            0   -15000.491     460.4237    32746.256 
 2080000    282.78906   -16881.099            0   -15105.023    157.69951    32853.356 
 2090000    306.00574   -16921.257            0   -14999.368   -186.40293    33160.284 
 2100000    296.18079   -16871.433            0    -15011.25    325.05168     32783.95 
 2110000    300.97577   -16851.062            0   -14960.764   -34.124148     32481.56 
 2120000     304.9505   -16885.775            0   -14970.513    207.55228    32489.848 
 2130000    294.16226   -16869.549            0   -15022.043    538.79223    32611.886 
 2140000    309.86817   -16859.681            0   -14913.533    701.37174    33206.987 
 2150000    307.50104   -16900.044            0   -14968.763   -484.54558    32558.678 
 2160000    288.98128   -16821.358            0   -15006.392   -264.22311    32780.698 
 2170000    295.29001   -16871.105            0   -15016.517   -393.53934    32940.224 
 2180000    297.18281    -16816.26            0   -14949.784    188.25749    32908.033 
 2190000    302.36596   -16793.454            0   -14894.424   -94.504852    32957.366 
 2200000    294.89259   -16916.019            0   -15063.926    543.58935    32681.542 
 2210000    293.38538   -16837.587            0   -14994.961   -20.483562      32601.1 
 2220000    297.50388   -16833.425            0   -14964.932    298.17758    32474.753 
 2230000    292.37602   -16954.333            0   -15118.046   -883.73734    32945.169 
 2240000    292.40015   -16847.171            0   -15010.732   -250.42925    32950.533 
 2250000     297.2374   -16829.397            0   -14962.578    696.34564     32436.27 
 2260000    293.69816   -16823.031            0    -14978.44   -70.017118    32744.459 
 2270000    297.95195   -16755.665            0   -14884.358   -62.441056    32744.308 
 2280000    304.10953   -16842.589            0   -14932.608   -808.19178    32521.316 
 2290000    297.96672   -16897.661            0   -15026.261    217.96286    32557.587 
 2300000    288.84156   -16899.452            0   -15085.363    547.74511    32537.691 
 2310000    295.15175    -16844.52            0   -14990.799   -267.38851    32817.883 
 2320000    283.13545   -16813.182            0   -15034.931   -866.49206     33177.32 
 2330000    307.05393   -16892.637            0   -14964.165     677.4016    32821.943 
 2340000    294.20467   -16876.275            0   -15028.503    256.83117    32390.401 
 2350000    294.32474   -16863.495            0   -15014.969    617.45878    32358.895 
 2360000    294.50752   -16854.526            0   -15004.852   -569.07674    32701.571 
 2370000    304.46496   -16750.119            0   -14837.906   -125.43528    32889.094 
 2380000    301.00344   -16926.909            0   -15036.437    701.78417    32253.589 
 2390000    295.01456    -16926.12            0   -15073.262   -608.61424    33023.795 
 2400000    297.09525   -16873.631            0   -15007.704    714.61068    32685.868 
 2410000    293.71732    -16853.69            0   -15008.979   -369.42958    32335.495 
 2420000    304.79471   -16878.232            0   -14963.949    259.85046    32890.383 
 2430000    298.91433   -16882.547            0   -15005.196    72.095455    32596.461 
 2440000    298.47536   -16858.857            0   -14984.263   -584.73242    33013.475 
 2450000    303.97924   -16934.549            0   -15025.387   -490.91517    32757.061 
 2460000    293.77336   -16869.386            0   -15024.323    444.90336    32394.584 
 2470000    300.30513   -16897.194            0   -15011.107    236.89515    32294.367 
 2480000    296.90562   -16817.358            0   -14952.622    743.34491    32758.364 
 2490000    305.11498   -16758.547            0   -14842.252   -17.052856    33006.652 
 2500000     294.7078    -16873.86            0   -15022.928   -41.906243     32676.36 
 2510000    285.41038   -16864.389            0    -15071.85   -111.08578    32916.998 
 2520000    299.22573   -16856.836            0   -14977.529    378.69259    32704.786 
 2530000    295.36402   -16802.411            0   -14947.358   -457.87624    32788.739 
 2540000    297.18609   -16938.051            0   -15071.554   -204.79404    32827.795 
 2550000    290.58161   -16901.034            0   -15076.017   -135.52722    32451.404 
 2560000    297.59865   -16918.549            0   -15049.461    712.35205    32111.191 
 2570000    300.61763   -16916.296            0   -15028.247    150.47422    33079.781 
 2580000    298.92089   -16757.227            0   -14879.834    100.24805    32963.462 
 2590000     291.1143    -16828.85            0   -15000.487   -378.23617    33070.244 
 2600000     303.3031   -16915.713            0   -15010.797    748.61145    32713.098 
 2610000    305.98029   -16947.756            0   -15026.026    198.98232    32664.396 
 2620000    300.28916   -16820.697            0    -14934.71   -364.72335    33032.836 
 2630000    296.87665   -16751.966            0   -14887.413    23.683143    32851.921 
 2640000    297.62557   -16878.493            0   -15009.236    24.127319    33112.793 
 2650000    294.50915   -16911.509            0   -15061.825    580.82013    32676.138 
 2660000     299.1663   -16808.624            0    -14929.69    612.04491    32554.979 
 2670000    295.93859   -16810.292            0    -14951.63    86.257559    32784.248 
 2680000    293.08458   -16860.864            0   -15020.126   -11.294749    33091.093 
 2690000    304.50879   -16808.434            0   -14895.947   -219.73526    32761.274 
 2700000    301.64387   -16858.028            0   -14963.534    553.48212     32641.63 
 2710000    293.53413   -16810.156            0   -14966.595   -513.03372    32861.718 
 2720000    298.77647   -16917.884            0   -15041.398    186.00619     32801.55 
 2730000    300.51415    -16922.27            0   -15034.871     89.26456    32866.749 
 2740000    305.25643   -16907.795            0   -14990.612   -29.885804    32743.829 
 2750000    298.28807   -16862.626            0   -14989.208   -106.24621    32654.523 
 2760000    302.62529   -17015.627            0   -15114.969    212.35517     32558.17 
 2770000    304.08016   -16797.746            0   -14887.951    916.35139    32288.631 
 2780000    300.68139    -16831.86            0   -14943.411   -370.76355    32748.613 
 2790000    306.68649   -16763.421            0   -14837.256   -224.41397    32998.898 
 2800000    294.31553   -16927.277            0   -15078.808   -655.80104     33246.06 
 2810000    307.08567   -16880.226            0   -14951.554    -93.73509    32745.039 
 2820000    299.51766   -16817.258            0   -14936.117    59.889314    32861.188 
 2830000    291.47057   -16887.202            0   -15056.602    409.73333    32380.105 
 2840000    291.17818   -16875.034            0    -15046.27    174.39678    32648.039 
 2850000    306.78934   -16933.235            0   -15006.424    73.228024     32528.41 
 2860000    299.38622   -16846.026            0    -14965.71    381.94364    33144.379 
 2870000    294.80681   -16825.323            0   -14973.769   -50.192127    32607.921 
 2880000     298.6515   -16846.054            0   -14970.354    43.764498    33209.229 
 2890000    303.41301   -16844.974            0   -14939.369    133.13734    33068.257 
 2900000    291.11991   -16770.634            0   -14942.236    -261.7808    33082.108 
 2910000    297.96575   -16813.753            0   -14942.359    79.681772      32790.1 
 2920000    297.09863   -16805.529            0   -14939.581    33.251243    32332.774 
 2930000    289.64938   -16822.585            0   -15003.423   -91.238569    32958.271 
 2940000    298.77184   -16887.324            0   -15010.868    723.90174    32537.032 
 2950000    305.84271   -16870.621            0   -14949.756   -139.23666    32377.774 
 2960000    303.77281   -16913.364            0   -15005.498    666.38496    32337.138 
 2970000    293.72129   -16949.886            0    -15105.15    30.951846    32839.281 
 2980000    288.64719   -16888.449            0   -15075.582    896.54135    32660.289 
 2990000    299.93646   -16724.203            0   -14840.432    986.28451    32684.095 
 3000000    291.83324   -16806.756            0   -14973.878   -99.510409    32524.825 
 3010000    304.07909   -16939.935            0   -15030.146    52.401479    32640.338 
 3020000     286.4734   -16789.906            0   -14990.691   -642.09712    33140.185 
 3030000    300.15691   -16787.836            0    -14902.68   -443.14719    32779.115 
 3040000    296.61763   -16769.923            0   -14906.996    660.46219    33015.414 
 3050000    304.08627   -16781.751            0   -14871.917   -16.770385    32636.966 
 3060000    298.15294   -16918.604            0   -15046.035    1157.5022    32326.295 
 3070000    307.83796   -16905.914            0   -14972.517   -26.603156    32528.816 
 3080000    293.22375   -16800.981            0   -14959.369   -105.06623    33139.607 
 3090000    300.45247   -16928.241            0   -15041.229   -239.77866    32612.623 
 3100000    295.31312   -16840.635            0   -14985.901   -78.366047    32622.448 
 3110000    298.83325   -16920.717            0   -15043.875    717.54241     32459.29 
 3120000    290.29836     -16800.7            0   -14977.462   -362.93488    32885.195 
 3130000    289.99901   -16764.158            0     -14942.8   -86.275627    32463.816 
 3140000    296.86927   -16801.047            0    -14936.54    985.80833    32287.788 
 3150000    289.45959   -16823.426            0   -15005.456    407.79407    32515.059 
 3160000    297.75941     -16855.3            0   -14985.203   -446.90697    32933.079 
 3170000    300.74288   -16825.752            0   -14936.916    84.728919    33040.456 
 3180000    296.43847    -16934.88            0   -15073.078    246.57172     32500.51 
 3190000    292.39669    -16913.19            0   -15076.773   -75.146074    32670.239 
 3200000    296.63571     -16876.5            0   -15013.459   -367.36566    32851.956 
 3210000    298.96306   -16860.304            0   -14982.646    -851.5437    32954.231 
 3220000    307.10472    -16831.79            0   -14902.998    431.32397    32396.266 
 3230000    291.18813    -16912.08            0   -15083.253    919.68014    32039.712 
 3240000    288.34095   -16831.022            0   -15020.078   -894.01891    33269.373 
 3250000    296.96442   -16835.674            0    -14970.57    28.773488    32853.278 
 3260000    302.49747    -16937.73            0   -15037.874   -337.17789    32755.663 
 3270000    299.87894   -16872.498            0   -14989.088   -443.89057    32923.047 
 3280000    297.74428   -16768.725            0   -14898.722   -619.70918    32908.843 
 3290000    306.12341   -16831.966            0   -14909.337    301.10435    32953.482 
 3300000    295.32908   -16802.778            0   -14947.944     -1124.51    33251.836 
 3310000    311.12394   -16859.308            0   -14905.273   -233.25559    32448.508 
 3320000    296.41754   -16941.524            0   -15079.854    171.41023    32673.024 
 3330000    301.01416   -16791.022            0   -14900.482    149.93128    33175.024 
 3340000    313.99893   -16939.249            0   -14967.157   -584.94213    33336.821 
 3350000    300.63326   -16880.679            0   -14992.532    -341.0347    32821.965 
 3360000    302.64119   -16824.362            0   -14923.604    336.51647     32329.11 
 3370000    287.98716   -16796.583            0    -14987.86   -411.46236    33197.331 
 3380000    296.75781    -16813.56            0   -14949.753   -118.61727    32903.303 
 3390000    301.41997   -16878.625            0   -14985.537    189.04203    32417.481 
 3400000    301.45629   -16901.648            0   -15008.331    214.95644    32552.211 
 3410000    293.45462    -16866.99            0   -15023.929    48.067652    32617.978 
 3420000    283.41689   -16794.028            0   -15014.009   -191.94315    33175.594 
 3430000    303.68034   -16830.318            0   -14923.033   -646.31226      32993.8 
 3440000    300.80922   -16840.762            0    -14951.51   -3.3361479    32799.108 
 3450000    304.30245   -16763.496            0   -14852.304   -646.06187    32879.987 
 3460000    292.33071   -16853.457            0   -15017.455    273.72264    32783.284 
 3470000    298.59828   -16818.281            0   -14942.915    273.07347    32959.376 
 3480000    303.07213   -16921.566            0   -15018.101   -334.37329    32905.484 
 3490000    289.29713   -16797.146            0   -14980.196   -722.22053    33194.715 
 3500000    298.12323   -16791.313            0   -14918.931    1031.0736    32765.896 
 3510000    299.37241   -16888.854            0   -15008.626   -278.40663    32855.114 
 3520000    299.58709   -16813.152            0   -14931.575    106.07119    32815.468 
 3530000    301.78302   -16798.179            0   -14902.811   -582.71953    32612.315 
 3540000    291.29099   -16855.501            0   -15026.028   -100.86609    32978.228 
 3550000    305.53273   -16777.505            0   -14858.587   -17.187772    32155.172 
 3560000     286.8306   -16780.022            0   -14978.564     185.3251    32565.804 
 3570000    299.55414   -16845.152            0   -14963.782   -243.86153    33255.401 
 3580000      301.883   -16740.298            0   -14844.302     3.175765    32827.481 
 3590000    289.02482   -16891.647            0   -15076.407   -313.13145    32957.289 
 3600000    310.88291   -16839.569            0   -14887.048   -69.893305    33039.657 
 3610000    294.67005   -16877.081            0   -15026.386    217.10962    32747.597 
 3620000    299.85193   -16822.975            0   -14939.735    206.39458    32798.373 
 3630000    294.64821   -16910.198            0    -15059.64   -493.80863    32596.234 
 3640000    295.82434   -16831.184            0   -14973.239    411.75969    32880.471 
 3650000    298.15837   -16974.979            0   -15102.376   -697.45375     33379.34 
 3660000    303.28797   -16839.947            0   -14935.127    255.24236    32651.831 
 3670000    294.47571   -16859.847            0   -15010.373   -61.116932    32556.568 
 3680000     300.3849   -16803.565            0   -14916.977   -411.37793    32926.464 
 3690000    294.90823   -16851.824            0   -14999.633    762.92074    32629.481 
 3700000    301.61189   -16790.034            0    -14895.74   -333.91662    32987.339 
 3710000    304.36669   -16917.275            0    -15005.68    257.45333    33019.064 
 3720000    293.71184   -16918.414            0   -15073.737   -708.00705     32751.31 
 3730000    297.82387   -16843.999            0   -14973.496    115.03977     32963.28 
 3740000    305.88355   -16871.113            0   -14949.991   -493.85801    33158.723 
 3750000    295.20539   -16939.435            0   -15085.378     641.0593     32467.84 
 3760000    301.89927   -16906.029            0    -15009.93    710.63989    32512.047 
 3770000    301.13974   -16832.345            0   -14941.016    199.83181    32663.075 
 3780000    304.39055   -16890.128            0   -14978.383    1007.0257    32455.441 
 3790000    290.50941   -16849.676            0   -15025.112   -1119.8963    32812.667 
 3800000    295.30727   -16785.207            0    -14930.51   -236.13277    33119.932 
 3810000    295.68852   -16892.079            0   -15034.988    1523.1565    31960.349 
 3820000     290.0569   -16817.556            0   -14995.835    801.62407     32549.21 
 3830000      304.707   -16821.546            0   -14907.813    277.19781    32692.214 
 3840000    294.14271   -16858.281            0   -15010.898    21.647951    32636.862 
 3850000    300.57091    -16747.92            0   -14860.164   -532.43546      33071.4 
 3860000    301.75205   -16877.733            0   -14982.559   -218.64773    32977.089 
 3870000    301.73918   -16853.223            0    -14958.13   -180.35802    32555.204 
 3880000    309.28278   -16932.263            0   -14989.791    719.03444    32559.792 
 3890000    291.73344   -16834.064            0   -15001.812   -195.28952    32917.224 
 3900000    301.70659   -16798.636            0   -14903.748     115.5904    32930.233 
 3910000    305.84876   -16978.711            0   -15057.807   -110.29432    32947.267 
 3920000    303.74635   -16793.083            0   -14885.383   -139.70981    32843.443 
 3930000    285.72576   -16852.392            0   -15057.873   -99.867878    32791.642 
 3940000    296.84165   -16868.116            0   -15003.782     547.5143    32695.683 
 3950000    308.37247   -16914.657            0   -14977.904    298.98174    32899.039 
 3960000    299.53267   -16848.452            0   -14967.217    294.59383    32741.449 
 3970000    298.64999   -16838.469            0   -14962.778   -185.40114    33088.448 
 3980000     298.7809   -16880.981            0   -15004.468   -285.14519    33103.017 
 3990000    289.84791   -16750.119            0   -14929.709   -248.35211    32896.573 
 4000000      303.106   -16794.674            0   -14890.997   -419.85994    33172.271 
 4010000    292.31361   -16832.794            0   -14996.899    78.689419    32803.845 
 4020000    304.50578   -16784.653            0   -14872.184    263.02938    32683.887 
 4030000    297.42677   -16847.205            0   -14979.197    215.19019    32826.164 
 4040000    308.97654   -16865.585            0   -14925.037     150.2564    32938.954 
 4050000    299.57706   -16906.279            0   -15024.765   -238.98984    32251.337 
 4060000    309.20319   -16882.212            0   -14940.241   -41.535371    32781.242 
 4070000    304.39152   -16887.052            0   -14975.301    377.11344    32864.401 
 4080000    292.82533   -16779.568            0   -14940.459    156.53971      32729.9 
 4090000    294.58962   -16867.562            0   -15017.372   -1273.6365    33235.182 
 4100000    299.59402   -16773.719            0   -14892.099   -583.51192    32667.768 
 4110000    288.36848   -16885.441            0   -15074.323    10.724799    32648.675 
 4120000    306.08315   -16844.974            0   -14922.598   -793.41878    32712.159 
 4130000    294.03573   -16899.393            0   -15052.682    693.31495    32335.744 
 4140000     300.1759   -16913.029            0   -15027.754   -364.71403    32809.524 
 4150000    305.32362   -16950.969            0   -15033.363   -293.55028    32492.395 
 4160000    306.77809   -16846.218            0   -14919.477    567.72878      32483.8 
 4170000    303.20713    -16808.38            0   -14904.067    488.94694    32587.919 
 4180000    286.38447   -16828.544            0   -15029.888   -16.953307    32792.601 
 4190000    294.42741   -16807.263            0   -14958.092    101.12157     32648.91 
 4200000    302.21311   -16881.235            0   -14983.166    447.10287    32257.362 
 4210000    293.32247   -16854.036            0   -15011.804    43.679467    32961.263 
 4220000    289.73896   -16854.448            0   -15034.723   -460.50396    32808.199 
 4230000    292.46438   -16913.453            0    -15076.61    347.23701    32948.453 
 4240000    300.67581   -16784.796            0   -14896.381     -7.78249    32927.085 
 4250000    302.31475   -16901.499            0   -15002.791    64.059751    32270.367 
 4260000     295.5896    -16907.21            0    -15050.74    453.33487    32547.754 
 4270000      295.053   -16806.998            0   -14953.898   -261.10342    33121.792 
 4280000    293.19814   -16897.748            0   -15056.298   -203.19786    32364.401 
 4290000    299.00813   -16894.951            0    -15017.01    282.81798    32804.518 
 4300000    295.91162   -16846.109            0   -14987.616    120.76905    32782.161 
 4310000    298.43907   -16757.102            0   -14882.735   -122.19903    32623.876 
 4320000    292.43465   -16837.995            0    -15001.34    194.85006    32116.946 
 4330000    301.61975   -16896.337            0   -15001.994     625.8119    32538.714 
 4340000    288.61269   -16828.942            0   -15016.291   -266.19094    32741.134 
 4350000    298.53513   -16861.398            0   -14986.429    102.82124    32689.344 
 4360000    295.23099   -16816.127            0   -14961.909    408.05185    32756.389 
 4370000    296.34548   -16864.384            0   -15003.166    147.42337    32525.509 
 4380000    295.87766   -16926.823            0   -15068.544   -436.62405    32613.376 
 4390000    297.73226    -16913.59            0   -15043.662   -434.18495    32637.933 
 4400000    297.77525    -16849.17            0   -14978.973   -347.33288    32770.092 
 4410000    299.53215   -16778.728            0   -14897.497   -35.317087    32954.838 
 4420000    301.32496   -16823.535            0   -14931.043    571.88224    32733.629 
 4430000    296.20081   -16900.012            0   -15039.703   -876.23226    32891.179 
 4440000    288.98209   -16906.352            0    -15091.38   -435.80088    32701.658 
 4450000    294.17899   -16795.306            0   -14947.695    49.723968    32743.834 
 4460000    300.07725   -16935.616            0   -15050.961    176.43148    32943.765 
 4470000    297.03908   -16838.742            0   -14973.168   -246.99162    33172.185 
 4480000    300.47924   -16893.857            0   -15006.677    278.68583    32480.444 
 4490000    294.77619   -16774.379            0   -14923.018   -919.04179    32897.841 
 4500000    301.29695   -16952.504            0   -15060.188   -211.28207    32918.249 
 4510000    296.54872   -16850.284            0    -14987.79   -7.3671041    33002.697 
 4520000    302.83651   -16818.376            0   -14916.391   -374.29941     32808.92 
 4530000    298.77137   -16906.632            0   -15030.178    603.67732    32643.406 
 4540000    305.94492   -16873.118            0   -14951.611   -105.55055    33155.721 
 4550000    302.80262   -16879.013            0    -14977.24   -137.88463    32492.711 
 4560000    300.30076   -16977.141            0   -15091.082    120.35357    32788.942 
 4570000    291.82756   -16779.782            0   -14946.939    106.49842    32726.373 
 4580000    301.51054   -16864.379            0   -14970.722    188.09857    32446.629 
 4590000    294.39007   -16849.214            0   -15000.277   -141.93097    32273.406 
 4600000    309.22703   -16933.691            0    -14991.57    602.29861     31829.15 
 4610000    298.83133   -16877.199            0   -15000.369    75.265112    32529.913 
 4620000    294.30756    -16840.19            0   -14991.772   -943.56151    32789.516 
 4630000    299.24997   -16901.843            0   -15022.384   -429.67303    33318.122 
 4640000    306.19392   -16743.618            0   -14820.546   -149.75813    33060.118 
 4650000    295.86661   -16865.214            0   -15007.004   -478.82647    33134.831 
 4660000    304.56492   -16936.802            0   -15023.962   -364.04937    32783.653 
 4670000    299.79581   -16974.944            0   -15092.056    705.69612    32471.319 
 4680000    299.32193   -16753.953            0   -14874.041    90.936307     32763.89 
 4690000    302.83261   -16793.131            0   -14891.171   -394.77855    32848.406 
 4700000    290.45843   -16848.063            0    -15023.82   -499.18734    33181.516 
 4710000    302.71151    -16871.03            0    -14969.83    159.52189    32978.898 
 4720000    293.76689     -16818.3            0   -14973.278   -283.98816    32892.395 
 4730000    296.78858   -16939.519            0   -15075.519    361.41949    32605.671 
 4740000     300.1672   -16844.375            0   -14959.154    36.830779     33002.06 
 4750000    292.36012   -16894.477            0   -15058.289   -42.278472    32449.034 
 4760000    302.08915   -16848.064            0   -14950.773    833.43251     32790.73 
 4770000    305.04193   -16856.194            0   -14940.358    444.81412    32663.706 
 4780000    305.92334   -16906.546            0   -14985.174   -456.93043    32731.682 
 4790000    307.22883   -16801.026            0   -14871.455    340.65445    33069.759 
 4800000     299.9877   -16947.302            0   -15063.209    -265.9366    33235.238 
 4810000    299.44065   -16795.169            0   -14914.512   -61.974282    32980.186 
 4820000    304.91938   -16809.813            0   -14894.747     534.7516    32776.205 
 4830000    298.37958   -16965.114            0   -15091.121   -628.58398    32657.104 
 4840000     295.8826   -16935.687            0   -15077.377    325.37383    32496.032 
 4850000    315.02078    -16909.19            0   -14930.681    809.80747    33159.911 
 4860000     289.2479   -16806.834            0   -14990.193   -866.29758    33183.499 
 4870000    297.03199   -16888.286            0   -15022.756   -238.20949    32481.705 
 4880000    302.80935   -16793.152            0   -14891.337   -140.17948     33331.21 
 4890000    300.49323   -16737.886            0   -14850.618   -644.76266    33091.903 
 4900000     298.0171   -16893.716            0       -15022    597.44514    32337.535 
 4910000    300.47296   -16801.752            0   -14914.611    49.228224    32963.138 
 4920000    295.59803   -16836.995            0   -14980.472    757.99706    32328.466 
 4930000    290.27399   -16814.584            0   -14991.499     339.7219    32826.814 
 4940000    299.28225   -16924.683            0   -15045.021    342.20615    32709.379 
 4950000    296.51449   -16799.042            0   -14936.763    735.41283    32693.618 
 4960000    290.45429   -16843.098            0    -15018.88    259.82618    32912.508 
 4970000    299.91997   -16835.176            0   -14951.509    804.07283    32369.813 
 4980000    295.99188   -16892.842            0   -15033.845   -105.66496    32633.921 
 4990000    294.64902   -16825.832            0    -14975.27   -109.33033    32890.614 
 5000000     309.0189   -16871.004            0    -14930.19   -213.58279    32773.174 
Loop time of 5100.94 on 128 procs for 5000000 steps with 3108 atoms

Performance: 169.381 ns/day, 0.142 hours/ns, 980.212 timesteps/s
99.4% CPU use with 128 MPI tasks x no OpenMP threads

MPI task timing breakdown:
Section |  min time  |  avg time  |  max time  |%varavg| %total
---------------------------------------------------------------
Pair    | 1164.6     | 1395.8     | 1611.7     | 296.4 | 27.36
Bond    | 0.4663     | 0.57066    | 0.99922    |  11.3 |  0.01
Kspace  | 2077.9     | 2294.3     | 2517.7     | 228.2 | 44.98
Neigh   | 146.43     | 147.3      | 148.16     |   3.1 |  2.89
Comm    | 529.43     | 573.76     | 629.54     |  93.2 | 11.25
Output  | 0.042038   | 0.042674   | 0.043877   |   0.2 |  0.00
Modify  | 504.68     | 606.08     | 647.49     | 136.1 | 11.88
Other   |            | 83.06      |            |       |  1.63

Nlocal:    24.2812 ave 32 max 17 min
Histogram: 5 3 18 6 33 19 24 9 9 2
Nghost:    2861.02 ave 2893 max 2826 min
Histogram: 2 3 12 15 18 32 27 12 6 1
Neighs:    8978.7 ave 12566 max 6161 min
Histogram: 7 11 21 18 20 17 21 8 2 3

Total # of neighbors = 1149273
Ave neighs/atom = 369.779
Ave special neighs/atom = 1.9305
Neighbor list builds = 436465
Dangerous builds = 0
PPPM initialization ...
  extracting TIP4P info from pair style
  using 12-bit tables for long-range coulomb (../kspace.cpp:321)
  G vector (1/distance) = 0.31049
  grid = 30 30 30
  stencil order = 5
  estimated absolute RMS force accuracy = 0.00367179
  estimated relative force accuracy = 1.10575e-05
  using double precision FFTs
  3d grid and FFT values/proc = 2475 256
Setting up Verlet run ...
  Unit style    : real
  Current step  : 0
  Time step     : 2
Per MPI rank memory allocation (min/avg/max) = 8.199 | 8.211 | 8.218 Mbytes
Density 
   1.1167669 
   1.1159364 
   1.1128419 
   1.1113952 
   1.1221514 
   1.1278627 
   1.1079864 
   1.1116801 
   1.1220998 
   1.1163288 
   1.1162288 
   1.1126148 
   1.1121571 
   1.1195464 
   1.1163526 
   1.1235191 
   1.1149565 
   1.1154706 
   1.1248272 
   1.1252774 
   1.1213776 
   1.1208594 
   1.1208186 
   1.1089406 
   1.1178034 
    1.128455 
    1.113872 
   1.1243748 
   1.1117664 
   1.1240773 
   1.1060212 
   1.1146184 
   1.1181013 
   1.0989967 
   1.1216389 
    1.129068 
   1.1191123 
   1.1103412 
   1.1173478 
   1.1105633 
   1.1067871 
   1.1052055 
   1.1105372 
   1.1323892 
   1.1079631 
   1.1162284 
   1.1329499 
   1.1226286 
   1.1248798 
   1.1225201 
   1.1114558 
   1.1173155 
   1.1143977 
    1.140048 
   1.1139774 
   1.1243477 
   1.1109169 
   1.1183637 
   1.1038602 
    1.122423 
   1.1154042 
   1.0994635 
   1.1246811 
   1.1049828 
   1.1224404 
   1.1001698 
   1.1144003 
   1.1247965 
   1.1196728 
   1.1205848 
   1.1215832 
   1.0991886 
   1.1101611 
   1.1149621 
   1.1190038 
   1.1093753 
   1.1135024 
   1.1104885 
   1.1239516 
   1.1219323 
   1.1184015 
   1.1192067 
   1.1112015 
   1.1118428 
   1.1121108 
   1.1220768 
    1.124875 
   1.1063228 
   1.1152889 
   1.0985717 
   1.1216944 
   1.1245946 
   1.1244949 
   1.1199715 
   1.1335776 
   1.0980959 
   1.1239131 
    1.115794 
   1.1010331 
   1.1325381 
   1.1079572 
   1.1267496 
   1.1282486 
   1.1140337 
   1.1298564 
   1.1201367 
   1.1146729 
   1.1215472 
   1.1044502 
    1.132234 
   1.1121799 
   1.1210037 
   1.1156525 
   1.1247487 
    1.119278 
   1.1321053 
   1.1149209 
   1.1275348 
   1.1387712 
   1.1317104 
   1.1186354 
   1.1033913 
   1.1068106 
   1.1118892 
   1.1124146 
   1.1301042 
    1.116436 
   1.1048087 
    1.107307 
   1.1156798 
   1.1140119 
   1.1261262 
   1.1119535 
   1.1118812 
   1.1284703 
    1.119861 
   1.1144411 
   1.1243741 
   1.1161394 
   1.0999426 
   1.1173533 
   1.1270215 
   1.1164471 
   1.1050539 
   1.1255173 
   1.1178209 
    1.110026 
   1.1206137 
   1.1189795 
   1.1062727 
   1.1245576 
   1.1171074 
   1.1162106 
   1.1169841 
   1.1324998 
    1.102172 
    1.105902 
    1.119997 
   1.1098994 
   1.1216489 
   1.1316652 
   1.1208114 
   1.1201037 
   1.1133445 
    1.120597 
   1.1115411 
   1.1245552 
    1.105269 
   1.1198826 
   1.1313494 
   1.1161815 
   1.1033902 
   1.1210894 
   1.1270692 
   1.1272544 
   1.1068029 
   1.1114158 
   1.1077774 
   1.1085572 
   1.1291373 
   1.1326264 
   1.1214411 
   1.1182696 
   1.1311205 
   1.1278748 
   1.1280447 
   1.1110933 
   1.1180614 
   1.1245145 
   1.1022061 
    1.120897 
   1.0987266 
   1.1125062 
   1.1101788 
   1.1031896 
   1.1130303 
   1.1087528 
   1.1114039 
   1.1225194 
   1.1129373 
   1.1168983 
   1.1086931 
   1.1062799 
   1.1133938 
   1.1338891 
   1.1096668 
   1.1056087 
   1.1209948 
   1.1088476 
   1.1155294 
   1.1331199 
   1.1213494 
   1.1307188 
   1.1132497 
   1.1193863 
   1.1115497 
   1.1251259 
   1.1082491 
   1.1170914 
    1.100942 
   1.1255833 
   1.1144239 
   1.1376303 
   1.1175114 
   1.1258965 
   1.1192207 
   1.1145658 
   1.1076467 
   1.1220467 
   1.1186882 
   1.1173742 
   1.1245789 
   1.1126866 
   1.1105634 
   1.1292002 
   1.1081724 
   1.1052855 
   1.1115439 
   1.1286701 
    1.103508 
   1.1198313 
   1.1148223 
    1.113483 
   1.1269865 
   1.1108438 
   1.1235278 
   1.1083894 
   1.1091132 
   1.1110381 
   1.0976091 
   1.1219884 
   1.1131146 
   1.1299576 
   1.1157685 
   1.1261127 
   1.1160313 
   1.1298934 
   1.1117123 
   1.1208024 
   1.0974393 
   1.1179203 
   1.1247365 
    1.130903 
   1.1188328 
   1.1059574 
   1.1154323 
    1.111818 
   1.1138369 
   1.1103645 
   1.1102439 
   1.1157752 
   1.1187665 
    1.127863 
   1.1129878 
   1.1168626 
    1.116359 
   1.1189318 
    1.101274 
   1.0997954 
   1.1071173 
   1.1385954 
    1.140885 
   1.1093245 
    1.102038 
   1.1224845 
   1.1179839 
    1.120906 
    1.121562 
   1.1093113 
   1.1113573 
   1.1201988 
   1.1184925 
   1.1087649 
   1.1057552 
   1.1314994 
   1.1171963 
   1.1128808 
    1.116643 
   1.1200034 
   1.1150958 
   1.1211018 
   1.1153437 
   1.1103458 
   1.1048146 
   1.1206714 
   1.1249166 
   1.1235778 
    1.119066 
   1.1180547 
   1.1268752 
   1.1299559 
   1.1184399 
    1.114466 
   1.1095468 
    1.104125 
   1.1248225 
   1.1299915 
   1.1060443 
   1.1269398 
   1.1213858 
   1.1261162 
   1.1172816 
     1.13148 
   1.1307758 
   1.1085191 
   1.1255186 
   1.1080223 
   1.1156091 
   1.1241664 
   1.1328466 
   1.1012765 
   1.1355533 
   1.1167285 
   1.1069265 
   1.1015473 
   1.1043125 
    1.116288 
   1.1206362 
   1.0989255 
   1.1234926 
   1.1252772 
   1.1119865 
    1.114677 
   1.1114736 
   1.1168513 
   1.1019587 
   1.1249527 
    1.118822 
   1.1067079 
    1.123973 
   1.1096501 
   1.1264887 
   1.1146932 
   1.1223615 
   1.1225121 
   1.1050028 
   1.1043644 
   1.1180755 
   1.1204716 
   1.1138946 
   1.1053457 
   1.1139445 
   1.1088741 
   1.1100007 
   1.1127699 
   1.1285923 
   1.1155374 
   1.1211707 
   1.1197911 
   1.1175021 
   1.1054184 
   1.1045421 
   1.1201738 
   1.1186527 
   1.1179693 
   1.1192196 
   1.1042879 
   1.1147106 
   1.1246278 
   1.1308931 
   1.1120955 
   1.1311273 
   1.1196081 
   1.1258636 
   1.1130736 
   1.1194656 
   1.1104542 
   1.1185504 
   1.1214867 
   1.1059849 
   1.1092841 
   1.1253371 
   1.1122071 
    1.114806 
   1.1159242 
   1.1241525 
   1.1108805 
   1.1148245 
   1.1177003 
   1.1233911 
   1.1108702 
   1.1213416 
   1.1089136 
   1.0824704 
   1.1160206 
   1.1134738 
   1.1256592 
   1.1198071 
   1.1156294 
   1.1204653 
   1.1083898 
   1.1226384 
   1.1147797 
   1.1198062 
   1.1214459 
   1.1164089 
   1.1211225 
   1.1242774 
   1.1207827 
   1.1269011 
   1.1239283 
   1.1061632 
   1.1055051 
   1.1047993 
   1.1107496 
    1.112855 
   1.1225675 
   1.1121277 
   1.1277866 
   1.1257431 
   1.1275892 
   1.1188768 
   1.1149088 
   1.1255615 
   1.1253366 
   1.1171684 
   1.1156154 
   1.1194305 
   1.1270353 
   1.1180426 
   1.1140297 
   1.1237357 
   1.1165108 
   1.1170035 
   1.1101972 
   1.1336038 
    1.119645 
   1.1271518 
     1.12426 
   1.1220526 
   1.1056152 
   1.1052363 
   1.1160512 
   1.1136246 
   1.1178106 
   1.1101373 
   1.1046826 
   1.1211827 
   1.1292342 
   1.1174258 
   1.1236349 
   1.1283978 
   1.1094873 
   1.1157281 
   1.1292516 
   1.1226092 
   1.1185257 
   1.1174216 
   1.1053513 
    1.124329 
   1.0992757 
   1.1209194 
   1.1222971 
   1.1277083 
   1.1131248 
   1.1228184 
   1.1117103 
   1.1000399 
   1.1363895 
   1.1243021 
   1.1213803 
     1.12388 
   1.1164081 
   1.1149493 
   1.1310554 
    1.112257 
    1.093741 
   1.1163109 
   1.1157734 
   1.1221265 
   1.1182719 
   1.1137094 
   1.1268651 
   1.1031572 
   1.1195701 
   1.1177726 
   1.1052524 
   1.1263807 
   1.1105882 
    1.119608 
   1.1058729 
Loop time of 5131.32 on 128 procs for 5000000 steps with 3108 atoms

Performance: 168.378 ns/day, 0.143 hours/ns, 974.408 timesteps/s
99.4% CPU use with 128 MPI tasks x no OpenMP threads

MPI task timing breakdown:
Section |  min time  |  avg time  |  max time  |%varavg| %total
---------------------------------------------------------------
Pair    | 1156.2     | 1393.5     | 1600.8     | 292.1 | 27.16
Bond    | 0.46885    | 0.56569    | 0.99959    |  11.0 |  0.01
Kspace  | 2068.4     | 2280.2     | 2501.9     | 225.2 | 44.44
Neigh   | 144.78     | 145.72     | 146.59     |   3.1 |  2.84
Comm    | 526.22     | 569.55     | 624.54     |  93.6 | 11.10
Output  | 0.017349   | 0.0223     | 0.03747    |   2.0 |  0.00
Modify  | 556.62     | 658.9      | 700.24     | 130.7 | 12.84
Other   |            | 82.88      |            |       |  1.62

Nlocal:    24.2812 ave 32 max 16 min
Histogram: 1 6 6 22 13 41 21 7 8 3
Nghost:    2840.37 ave 2862 max 2813 min
Histogram: 2 3 8 17 15 29 20 19 10 5
Neighs:    8900.31 ave 12269 max 5634 min
Histogram: 2 8 16 20 19 26 17 7 10 3

Total # of neighbors = 1139240
Ave neighs/atom = 366.551
Ave special neighs/atom = 1.9305
Neighbor list builds = 436457
Dangerous builds = 0
Changing box ...
  orthogonal box = (0.577583 0.577583 0.577583) to (32.5725 32.684 32.684)
  orthogonal box = (0.577583 0.577583 0.577583) to (32.5725 32.5725 32.684)
  orthogonal box = (0.577583 0.577583 0.577583) to (32.5725 32.5725 32.5725)
PPPM initialization ...
  extracting TIP4P info from pair style
  using 12-bit tables for long-range coulomb (../kspace.cpp:321)
  G vector (1/distance) = 0.310505
  grid = 30 30 30
  stencil order = 5
  estimated absolute RMS force accuracy = 0.00366947
  estimated relative force accuracy = 1.10505e-05
  using double precision FFTs
  3d grid and FFT values/proc = 2475 256
Setting up Verlet run ...
  Unit style    : real
  Current step  : 0
  Time step     : 0.001
Per MPI rank memory allocation (min/avg/max) = 8.199 | 8.211 | 8.218 Mbytes
Density 
   1.1174785 
   1.1174785 
Loop time of 8.15097 on 128 procs for 10000 steps with 3108 atoms

Performance: 0.106 ns/day, 226.416 hours/ns, 1226.848 timesteps/s
99.4% CPU use with 128 MPI tasks x no OpenMP threads

MPI task timing breakdown:
Section |  min time  |  avg time  |  max time  |%varavg| %total
---------------------------------------------------------------
Pair    | 1.2859     | 2.0643     | 2.9587     |  23.7 | 25.33
Bond    | 0.00069545 | 0.00082649 | 0.001445   |   0.0 |  0.01
Kspace  | 3.2929     | 4.1751     | 4.9543     |  17.1 | 51.22
Neigh   | 0          | 0          | 0          |   0.0 |  0.00
Comm    | 0.97417    | 1.1112     | 1.5242     |  13.6 | 13.63
Output  | 3.2761e-05 | 4.5966e-05 | 8.6531e-05 |   0.0 |  0.00
Modify  | 0.62555    | 0.69239    | 0.74464    |   3.6 |  8.49
Other   |            | 0.1071     |            |       |  1.31

Nlocal:    24.2812 ave 32 max 15 min
Histogram: 2 2 11 5 27 38 17 15 9 2
Nghost:    2866.37 ave 2888 max 2844 min
Histogram: 5 8 9 20 15 25 17 16 8 5
Neighs:    8990.39 ave 12879 max 5827 min
Histogram: 4 10 16 22 27 21 14 10 2 2

Total # of neighbors = 1150770
Ave neighs/atom = 370.261
Ave special neighs/atom = 1.9305
Neighbor list builds = 0
Dangerous builds = 0
PPPM initialization ...
  extracting TIP4P info from pair style
  using 12-bit tables for long-range coulomb (../kspace.cpp:321)
  G vector (1/distance) = 0.310505
  grid = 30 30 30
  stencil order = 5
  estimated absolute RMS force accuracy = 0.00366947
  estimated relative force accuracy = 1.10505e-05
  using double precision FFTs
  3d grid and FFT values/proc = 2475 256
Setting up Verlet run ...
  Unit style    : real
  Current step  : 10000
  Time step     : 0.01
Per MPI rank memory allocation (min/avg/max) = 8.199 | 8.211 | 8.218 Mbytes
Density 
   1.1174785 
   1.1174785 
Loop time of 7.63247 on 128 procs for 10000 steps with 3108 atoms

Performance: 1.132 ns/day, 21.201 hours/ns, 1310.192 timesteps/s
99.4% CPU use with 128 MPI tasks x no OpenMP threads

MPI task timing breakdown:
Section |  min time  |  avg time  |  max time  |%varavg| %total
---------------------------------------------------------------
Pair    | 1.4019     | 2.0591     | 2.8999     |  22.6 | 26.98
Bond    | 0.0007117  | 0.00083104 | 0.0014233  |   0.0 |  0.01
Kspace  | 2.9163     | 3.7365     | 4.3517     |  16.4 | 48.96
Neigh   | 0.001221   | 0.0012534  | 0.0012906  |   0.0 |  0.02
Comm    | 0.95558    | 1.043      | 1.1083     |   3.5 | 13.67
Output  | 2.68e-05   | 3.6845e-05 | 8.8454e-05 |   0.0 |  0.00
Modify  | 0.61883    | 0.68531    | 0.73602    |   3.5 |  8.98
Other   |            | 0.1065     |            |       |  1.40

Nlocal:    24.2812 ave 31 max 17 min
Histogram: 5 3 11 17 16 31 16 20 4 5
Nghost:    2863.45 ave 2892 max 2828 min
Histogram: 2 5 6 12 23 21 29 18 7 5
Neighs:    8990.71 ave 12058 max 6284 min
Histogram: 8 8 11 24 26 12 20 5 6 8

Total # of neighbors = 1150811
Ave neighs/atom = 370.274
Ave special neighs/atom = 1.9305
Neighbor list builds = 4
Dangerous builds = 0
PPPM initialization ...
  extracting TIP4P info from pair style
  using 12-bit tables for long-range coulomb (../kspace.cpp:321)
  G vector (1/distance) = 0.310505
  grid = 30 30 30
  stencil order = 5
  estimated absolute RMS force accuracy = 0.00366947
  estimated relative force accuracy = 1.10505e-05
  using double precision FFTs
  3d grid and FFT values/proc = 2475 256
Setting up Verlet run ...
  Unit style    : real
  Current step  : 20000
  Time step     : 0.1
Per MPI rank memory allocation (min/avg/max) = 8.199 | 8.211 | 8.218 Mbytes
Density 
   1.1174785 
   1.1174785 
Loop time of 7.79112 on 128 procs for 10000 steps with 3108 atoms

Performance: 11.090 ns/day, 2.164 hours/ns, 1283.513 timesteps/s
99.5% CPU use with 128 MPI tasks x no OpenMP threads

MPI task timing breakdown:
Section |  min time  |  avg time  |  max time  |%varavg| %total
---------------------------------------------------------------
Pair    | 1.4056     | 2.0658     | 2.8804     |  19.3 | 26.51
Bond    | 0.00069665 | 0.00082513 | 0.0014314  |   0.0 |  0.01
Kspace  | 3.0205     | 3.8374     | 4.4863     |  13.8 | 49.25
Neigh   | 0.013505   | 0.013626   | 0.013788   |   0.0 |  0.17
Comm    | 0.97123    | 1.0664     | 1.1299     |   3.5 | 13.69
Output  | 2.2982e-05 | 3.2044e-05 | 6.3809e-05 |   0.0 |  0.00
Modify  | 0.62362    | 0.70025    | 0.75106    |   3.7 |  8.99
Other   |            | 0.1068     |            |       |  1.37

Nlocal:    24.2812 ave 33 max 11 min
Histogram: 1 0 1 4 17 54 19 16 10 6
Nghost:    2863.15 ave 2893 max 2828 min
Histogram: 5 2 13 12 18 22 22 20 9 5
Neighs:    8991.91 ave 12896 max 4151 min
Histogram: 1 0 6 18 28 32 17 13 8 5

Total # of neighbors = 1150964
Ave neighs/atom = 370.323
Ave special neighs/atom = 1.9305
Neighbor list builds = 44
Dangerous builds = 0
PPPM initialization ...
  extracting TIP4P info from pair style
  using 12-bit tables for long-range coulomb (../kspace.cpp:321)
  G vector (1/distance) = 0.310505
  grid = 30 30 30
  stencil order = 5
  estimated absolute RMS force accuracy = 0.00366947
  estimated relative force accuracy = 1.10505e-05
  using double precision FFTs
  3d grid and FFT values/proc = 2475 256
Setting up Verlet run ...
  Unit style    : real
  Current step  : 30000
  Time step     : 0.2
Per MPI rank memory allocation (min/avg/max) = 8.199 | 8.211 | 8.218 Mbytes
Density 
   1.1174785 
   1.1174785 
Loop time of 7.78135 on 128 procs for 10000 steps with 3108 atoms

Performance: 22.207 ns/day, 1.081 hours/ns, 1285.124 timesteps/s
99.4% CPU use with 128 MPI tasks x no OpenMP threads

MPI task timing breakdown:
Section |  min time  |  avg time  |  max time  |%varavg| %total
---------------------------------------------------------------
Pair    | 1.4423     | 2.0748     | 2.7266     |  18.6 | 26.66
Bond    | 0.00070146 | 0.00082102 | 0.0013719  |   0.0 |  0.01
Kspace  | 3.1338     | 3.7898     | 4.4243     |  13.5 | 48.70
Neigh   | 0.026669   | 0.026938   | 0.027272   |   0.1 |  0.35
Comm    | 0.98638    | 1.0774     | 1.1387     |   3.2 | 13.85
Output  | 2.5798e-05 | 3.7527e-05 | 7.8086e-05 |   0.0 |  0.00
Modify  | 0.64487    | 0.70389    | 0.75363    |   3.4 |  9.05
Other   |            | 0.1077     |            |       |  1.38

Nlocal:    24.2812 ave 35 max 16 min
Histogram: 4 6 17 19 37 23 18 2 1 1
Nghost:    2864.86 ave 2892 max 2848 min
Histogram: 10 17 20 24 20 19 6 8 2 2
Neighs:    8988.96 ave 12593 max 5987 min
Histogram: 6 14 9 24 25 17 15 9 7 2

Total # of neighbors = 1150587
Ave neighs/atom = 370.202
Ave special neighs/atom = 1.9305
Neighbor list builds = 87
Dangerous builds = 0
PPPM initialization ...
  extracting TIP4P info from pair style
  using 12-bit tables for long-range coulomb (../kspace.cpp:321)
  G vector (1/distance) = 0.310505
  grid = 30 30 30
  stencil order = 5
  estimated absolute RMS force accuracy = 0.00366947
  estimated relative force accuracy = 1.10505e-05
  using double precision FFTs
  3d grid and FFT values/proc = 2475 256
Setting up Verlet run ...
  Unit style    : real
  Current step  : 40000
  Time step     : 0.5
Per MPI rank memory allocation (min/avg/max) = 8.199 | 8.211 | 8.218 Mbytes
Density 
   1.1174785 
   1.1174785 
Loop time of 7.98341 on 128 procs for 10000 steps with 3108 atoms

Performance: 54.112 ns/day, 0.444 hours/ns, 1252.598 timesteps/s
99.4% CPU use with 128 MPI tasks x no OpenMP threads

MPI task timing breakdown:
Section |  min time  |  avg time  |  max time  |%varavg| %total
---------------------------------------------------------------
Pair    | 1.4312     | 2.097      | 2.5591     |  15.5 | 26.27
Bond    | 0.00069452 | 0.00082522 | 0.0013764  |   0.0 |  0.01
Kspace  | 3.4417     | 3.8857     | 4.5407     |  11.3 | 48.67
Neigh   | 0.099419   | 0.11202    | 0.11341    |   0.9 |  1.40
Comm    | 0.99036    | 1.0826     | 1.1408     |   3.3 | 13.56
Output  | 2.8283e-05 | 3.8338e-05 | 7.0151e-05 |   0.0 |  0.00
Modify  | 0.62957    | 0.69779    | 0.75049    |   3.6 |  8.74
Other   |            | 0.1075     |            |       |  1.35

Nlocal:    24.2812 ave 32 max 16 min
Histogram: 3 8 5 14 20 33 24 10 10 1
Nghost:    2871.1 ave 2904 max 2840 min
Histogram: 1 9 15 16 28 19 20 14 3 3
Neighs:    8992.25 ave 12760 max 5799 min
Histogram: 6 8 11 25 25 21 21 6 2 3

Total # of neighbors = 1151008
Ave neighs/atom = 370.337
Ave special neighs/atom = 1.9305
Neighbor list builds = 222
Dangerous builds = 0
PPPM initialization ...
  extracting TIP4P info from pair style
  using 12-bit tables for long-range coulomb (../kspace.cpp:321)
  G vector (1/distance) = 0.310505
  grid = 30 30 30
  stencil order = 5
  estimated absolute RMS force accuracy = 0.00366947
  estimated relative force accuracy = 1.10505e-05
  using double precision FFTs
  3d grid and FFT values/proc = 2475 256
Setting up Verlet run ...
  Unit style    : real
  Current step  : 0
  Time step     : 2
Per MPI rank memory allocation (min/avg/max) = 8.199 | 8.211 | 8.218 Mbytes
Density 
   1.1174785 
   1.1174785 
   1.1174785 
   1.1174785 
   1.1174785 
   1.1174785 
   1.1174785 
   1.1174785 
   1.1174785 
   1.1174785 
   1.1174785 
Loop time of 82.7901 on 128 procs for 100000 steps with 3108 atoms

Performance: 208.721 ns/day, 0.115 hours/ns, 1207.874 timesteps/s
99.4% CPU use with 128 MPI tasks x no OpenMP threads

MPI task timing breakdown:
Section |  min time  |  avg time  |  max time  |%varavg| %total
---------------------------------------------------------------
Pair    | 17.811     | 21.368     | 25.314     |  37.6 | 25.81
Bond    | 0.0069593  | 0.0082769  | 0.014007   |   1.1 |  0.01
Kspace  | 34.68      | 38.468     | 42.204     |  28.3 | 46.46
Neigh   | 2.8133     | 2.8386     | 2.8576     |   0.6 |  3.43
Comm    | 11.117     | 11.953     | 12.53      |   9.6 | 14.44
Output  | 0.00031131 | 0.00041067 | 0.00082657 |   0.0 |  0.00
Modify  | 6.3904     | 7.0591     | 7.5828     |  11.4 |  8.53
Other   |            | 1.095      |            |       |  1.32

Nlocal:    24.2812 ave 32 max 15 min
Histogram: 2 5 10 11 20 36 15 12 15 2
Nghost:    2862.5 ave 2897 max 2830 min
Histogram: 7 9 17 15 21 14 21 12 5 7
Neighs:    8986.36 ave 12942 max 4890 min
Histogram: 2 5 14 16 22 28 20 13 7 1

Total # of neighbors = 1150254
Ave neighs/atom = 370.095
Ave special neighs/atom = 1.9305
Neighbor list builds = 8659
Dangerous builds = 0
WARNING: New thermo_style command, previous thermo_modify settings will be lost (../output.cpp:705)
PPPM initialization ...
  extracting TIP4P info from pair style
  using 12-bit tables for long-range coulomb (../kspace.cpp:321)
  G vector (1/distance) = 0.310505
  grid = 30 30 30
  stencil order = 5
  estimated absolute RMS force accuracy = 0.00366947
  estimated relative force accuracy = 1.10505e-05
  using double precision FFTs
  3d grid and FFT values/proc = 2475 256
Setting up Verlet run ...
  Unit style    : real
  Current step  : 0
  Time step     : 2
[...]
98200000    302.22696    298.28712    221.78268   -24.575758    -16894.35    1898.1566   -14996.193 
98210000    301.09737    297.57211    956.26849     10.33163   -16832.412    1891.0621    -14941.35 
98220000    301.13686    298.24363    110.71394    37.588656   -16816.509    1891.3102   -14925.199 
98230000    305.85062    297.67201    206.16412   -112.62872   -16914.719    1920.9152   -14993.804 
98240000    300.65112    298.24407    193.79368   -68.618777    -16848.13    1888.2594   -14959.871 
98250000    295.92474    297.98841   -253.40974   -16.948586   -16895.359    1858.5751   -15036.784 
98260000    298.14825    298.10514    14.442108    3.2196608   -16838.549      1872.54   -14966.009 
98270000    290.27645    297.60864   -619.75787    51.972585   -16871.915    1823.1007   -15048.814 
98280000    298.09645    297.71624    399.24987   -15.523983   -16859.999    1872.2146   -14987.784 
98290000    296.85328     297.9303     414.3693   -9.4626241   -16838.555    1864.4069   -14974.149 
98300000    300.37107    298.21258   -117.56647     10.92952   -16898.758    1886.5006   -15012.258 
98310000    297.58669    297.51693    178.45568     3.429791   -16835.218    1869.0131   -14966.205 
98320000    299.16138    298.59367    227.99009   -5.1536481   -16824.788    1878.9031   -14945.885 
98330000    288.30376    298.11553    349.62147    35.440553   -16832.626     1810.711   -15021.915 
98340000    300.40171    297.51331   -148.33645    4.8742258   -16871.591     1886.693   -14984.898 
98350000    293.18356    297.67676   -185.90795   -26.695903   -16821.888    1841.3589   -14980.529 
98360000    309.74929    298.33605    78.335079   -18.184252       -16953    1945.4011   -15007.599 
98370000    305.21055    297.57236    378.57984   -29.492366   -16822.643    1916.8952   -14905.747 
98380000    292.38946    298.04134   -176.08984   -35.465847   -16837.311    1836.3715   -15000.939 
98390000    291.36019    298.21352    -214.5445    83.448537   -16821.702    1829.9071   -14991.795 
98400000    296.77769     297.9712   -498.97444    35.062223   -16843.431    1863.9321   -14979.499 
98410000    310.31298    297.86961    359.85343   -3.4954622     -16814.8    1948.9414   -14865.858 
98420000    294.19983    297.90766    203.52289    21.871244   -16868.741    1847.7417   -15020.999 
98430000    304.67879    297.55832    -464.9041    5.6464427   -16900.751    1913.5555   -14987.196 
98440000    298.80159    297.65243    -740.9833    25.783448   -16885.237    1876.6433   -15008.594 
98450000    299.54928    297.95234   -112.41531   -60.877536   -16869.582    1881.3392   -14988.242 
98460000    301.57437    297.82777   -633.74231    7.5571738   -16915.197     1894.058   -15021.139 
98470000    297.12315    298.17848    387.16138   -52.934337   -16907.606    1866.1018   -15041.504 
98480000    291.63759    297.49099   -36.934067   -27.999618   -16919.195    1831.6494   -15087.545 
98490000    295.79488    298.05323   -348.47133    30.807155   -16844.502    1857.7595   -14986.742 
98500000    304.82881     298.2417    258.58133   -15.706721   -16818.201    1914.4977   -14903.704 
98510000     299.4946    297.99422   -83.670495   -48.376803    -16868.09    1880.9958   -14987.095 
98520000    296.49631    297.53884   -238.83988   -64.519812   -16868.618    1862.1649   -15006.453 
98530000    300.74839    297.99682    103.91111    38.266669   -16772.778    1888.8704   -14883.908 
98540000    299.09071    298.00891    305.68053   -15.745608   -16786.752    1878.4592   -14908.293 
98550000    291.89843    298.10854   -55.718898    31.487141   -16832.207    1833.2876    -14998.92 
98560000    303.09383    298.16976     27.51552   -103.16085   -16925.398     1903.601   -15021.797 
98570000     299.0868    297.84259    -326.7386    15.201633   -16905.662    1878.4346   -15027.227 
98580000    293.48541    298.19492    150.89418    2.1638396   -16876.481    1843.2547   -15033.226 
98590000    296.62509    298.32686    334.73096   -100.26178   -16794.731    1862.9737   -14931.757 
98600000    291.72513     297.3971    229.99512   -20.319338     -16975.3    1832.1992   -15143.101 
98610000    292.25644     297.6467   -253.59855   -140.50847   -16784.597    1835.5361   -14949.061 
98620000    298.28776    297.93048   -79.875423   -16.705887   -16884.365    1873.4162   -15010.949 
98630000    301.28711    297.73663   -214.89373   -11.333858    -16840.59    1892.2538   -14948.336 
98640000    291.67214    297.86367   -486.92045   -15.893029   -16859.979    1831.8664   -15028.113 
98650000    297.45244    298.42567    113.07504    -46.69955   -16859.669    1868.1699   -14991.499 
98660000    301.02811    297.84928    189.93461    8.3481315   -16900.663    1890.6271   -15010.035 
98670000    296.51559    298.15364    83.665862    -38.22722   -16891.949     1862.286   -15029.663 
98680000    299.78173    297.88897   -314.15707   -27.745666   -16904.943    1882.7992   -15022.144 
98690000    302.07064    298.13001    105.44423   -57.001897   -16938.488    1897.1748   -15041.313 
98700000     302.2691    297.74782   -356.41762     76.70652   -16842.847    1898.4213   -14944.426 
98710000    299.52234    297.79197    135.92192     16.97287   -16950.126      1881.17   -15068.956 
98720000    293.81864    298.19598    581.32446    37.255345   -16887.643    1845.3476   -15042.296 
98730000    301.64848    298.05778    120.41144    27.980906   -16729.134    1894.5234    -14834.61 
98740000    298.92644    297.73472    284.49467     2.482808   -16868.981    1877.4275   -14991.554 
98750000    299.79102    297.87702   -630.28805   -3.0999764   -16833.912    1882.8575   -14951.054 
98760000    288.87154      298.442    111.64515   -49.575055   -16842.354     1814.277   -15028.077 
98770000    295.71685    297.87834   -379.04273   -116.71918   -16891.383    1857.2695   -15034.114 
98780000     289.7468     298.0966   -5.6773084   -26.979072   -16764.881    1819.7741   -14945.107 
98790000    304.95105    298.27718   -461.53514     17.02498   -16842.892    1915.2654   -14927.627 
98800000    294.28414    297.92238    326.89756   -32.205291   -16748.567    1848.2712   -14900.296 
98810000    295.71863    298.12521   -534.46989   -92.670697   -16810.918    1857.2806   -14953.638 
98820000    295.77073    297.95901    265.29239   -129.32286   -16850.916    1857.6078   -14993.309 
98830000    290.93398    297.91263   -58.577866     100.4687   -16859.779    1827.2303   -15032.549 
98840000    301.70413    298.22934    -578.6909    18.167683   -16981.865    1894.8729   -15086.993 
98850000    305.04288     297.5023    629.36117   -103.96567   -16891.061    1915.8422   -14975.219 
98860000    290.64487    297.74225   -72.572879   -86.625346   -16800.863    1825.4145   -14975.448 
98870000    292.24107    298.24376    -403.9498   -44.331589   -16799.513    1835.4395   -14964.073 
98880000    299.17476    298.03249   -30.482892   -121.27284   -16836.082    1878.9871   -14957.095 
98890000    296.00896    298.45827   -231.96918    34.146484   -16903.171     1859.104   -15044.067 
98900000    298.49693    297.71514    1030.9227    9.6867331   -16890.565    1874.7299   -15015.835 
98910000    287.92717    298.35753    220.50707    88.264653   -16934.911    1808.3458   -15126.565 
98920000    293.80112    298.12065    209.19076   -27.595066    -16878.42    1845.2376   -15033.183 
98930000    305.27946    298.13624   -788.18529   -12.315535   -16844.253    1917.3281   -14926.925 
98940000      300.085    297.87498   -121.76085    55.827401   -16854.198    1884.7039   -14969.495 
98950000    295.57473    298.08482   -340.02924    30.900087   -16809.541    1856.3768   -14953.164 
98960000    302.56367    297.90429    -250.1009   -33.295913   -16864.572    1900.2713     -14964.3 
98970000    297.61485     298.3325   -66.978954     66.71488   -16882.987      1869.19   -15013.797 
98980000    295.55277    297.75617    376.76853   -15.386559   -16900.285    1856.2389   -15044.046 
98990000     294.4463    298.25751    350.69947      6.13249   -16866.376    1849.2897   -15017.087 
99000000     293.3767    298.05136   -26.390448    66.773641   -16915.595     1842.572   -15073.023 
99010000    296.62076    298.05305    173.51048   -28.828951   -16865.822    1862.9465   -15002.875 
99020000    294.29782    297.83344    414.79463    23.508341   -16797.118    1848.3571   -14948.761 
99030000    292.47516    298.07884   -498.05093   -13.904568   -16901.317    1836.9098   -15064.407 
99040000    305.62811    297.76642    328.44998   -31.178217   -16874.697    1919.5177    -14955.18 
99050000    294.95142     298.3255   -630.64108   -26.145799   -16947.666    1852.4621   -15095.204 
99060000    298.99281    297.96975   -282.85037    24.729374   -16834.343    1877.8443   -14956.499 
99070000    299.21297    298.04458    -20.01243    110.76983   -16855.624     1879.227   -14976.397 
99080000    307.67128    298.34524   -34.910029   -29.143616    -16769.05      1932.35     -14836.7 
99090000    292.54767    298.31468   -163.14191    66.564796   -16895.214    1837.3652   -15057.849 
99100000     297.6433    298.09971   -64.663269     48.32111   -16774.491    1869.3686   -14905.122 
99110000    295.43275    297.47061    210.81483   -71.706084   -16812.554    1855.4851   -14957.069 
99120000    299.92312    298.44791    238.57948   -60.893023   -16861.884    1883.6872   -14978.197 
99130000    301.61559    298.39246    48.328584   -56.738489   -16844.664    1894.3168   -14950.347 
99140000    303.80132    297.42136    205.19872    143.33294   -16852.882    1908.0445   -14944.838 
99150000    297.09061    297.78096    214.33037    42.358135   -16938.002    1865.8974   -15072.105 
99160000    295.17616    298.06674    13.656264    18.298674   -16852.057    1853.8736   -14998.184 
99170000    304.57121    297.96581    63.016072   -6.2672933   -16777.563    1912.8798   -14864.683 
99180000    298.49726    297.73844    291.72256    29.561551   -16905.895     1874.732   -15031.163 
99190000    300.20005    297.91993   -377.74141    24.757063   -16820.041    1885.4265   -14934.614 
99200000    299.26549    298.48898    219.39852   -4.1812769   -16973.742    1879.5569   -15094.186 
99210000    298.71172    297.70992   -574.28371   -57.775108   -16874.072    1876.0789   -14997.993 
99220000    301.44856     298.4118   -307.32927   -13.792178    -16909.48    1893.2678   -15016.212 
99230000    303.59824     297.7264   -468.33622    77.022975    -16900.54     1906.769   -14993.771 
99240000    295.02824    297.71573   -508.50863   -82.630117   -16800.464    1852.9445    -14947.52 
99250000    302.63238     298.2755   -232.49381   -24.934696   -16823.902    1900.7029   -14923.199 
99260000      302.713    297.53589    416.87351    -27.00574   -16846.515    1901.2092   -14945.306 
99270000    300.89362    297.74816    626.25331   -37.349182   -16809.989    1889.7825   -14920.206 
99280000     299.3398    298.28668    84.689111    28.542306   -16817.514    1880.0236   -14937.491 
99290000    299.64568    298.18516   -354.17651   -15.885418   -16862.899    1881.9447   -14980.954 
99300000    290.10517    297.63299    233.79649   -30.560311   -16894.972    1822.0249   -15072.948 
99310000    299.08629     297.7441    -324.8835    -96.22971   -16895.325    1878.4314   -15016.893 
99320000    288.61818    297.99936   -89.744232   -5.0807552   -16823.185    1812.6857   -15010.499 
99330000    300.03257    298.28207    492.24187    66.243999   -16760.954    1884.3746   -14876.579 
99340000    291.40003    298.08454   -470.33556   -9.6312999   -16823.919    1830.1573   -14993.762 
99350000    300.97402    297.76344    379.43023    3.7489933   -16763.324    1890.2875   -14873.036 
99360000    299.88473    297.80724     423.9396   -13.246797   -16790.374    1883.4461   -14906.928 
99370000    299.31337    297.77963    103.32613   -24.146993   -16922.884    1879.8576   -15043.026 
99380000    303.46174    298.62142    159.31236   -95.961792   -16904.877    1905.9117   -14998.965 
99390000    299.62925    297.86464    269.39207    60.230834   -16889.466    1881.8415   -15007.625 
99400000    296.67171    298.41612   -189.50347    102.95385   -16911.938    1863.2665   -15048.672 
99410000    286.65419    298.32119   -66.321757    94.995354   -16907.539    1800.3508   -15107.188 
99420000    302.24017    297.88802   -437.66091   -21.816224   -16854.239    1898.2396   -14955.999 
99430000    298.57552    298.01978   -496.51818    2.6802065    -16886.89    1875.2235   -15011.667 
99440000    291.47891    297.91458    692.92251    63.222679   -16885.229    1830.6527   -15054.576 
99450000    295.92965    298.52093    244.73723    116.95644   -16882.551    1858.6059   -15023.945 
99460000    302.27241    297.91764    411.36439    -5.837724   -16834.135    1898.4421   -14935.693 
99470000     292.7059    297.49897    382.98915   -8.2676609   -16850.812     1838.359   -15012.453 
99480000    296.50675    297.74556      249.281   -31.381289   -16901.983    1862.2304   -15039.752 
99490000    293.10289    298.04502    -180.9254   -79.685377   -16886.832    1840.8523   -15045.979 
99500000    304.34824    297.99274   -298.04194   -2.8431349    -16850.39    1911.4794   -14938.911 
99510000    291.52894    298.18346    463.05536    7.8939859   -16836.894     1830.967   -15005.927 
99520000    300.18152    297.42589    292.29739    96.144572   -16866.336    1885.3101   -14981.026 
99530000    302.18666    297.73675   -512.09891   -40.141811   -16799.191    1897.9035   -14901.288 
99540000    294.02105    298.26512    150.60756    34.485477   -16823.829    1846.6189    -14977.21 
99550000    294.26058    297.94282    446.04425   -27.399987   -16720.338    1848.1232   -14872.215 
99560000    295.99456    297.83357    366.70883    88.946306   -16853.928    1859.0136   -14994.915 
99570000    301.74868    298.33921    203.16707    40.311591   -16798.063    1895.1527   -14902.911 
99580000     295.0777    298.32407    702.22678   -65.522672   -16793.535    1853.2552    -14940.28 
99590000     296.7498    298.30449   -817.91779   -16.719789   -16808.557    1863.7569     -14944.8 
99600000    285.18521    297.98338   -543.98826   -11.103113   -16928.278    1791.1247   -15137.153 
99610000    294.91616    298.08348   -541.28333   -39.263649   -16870.489    1852.2406   -15018.248 
99620000    303.55678    297.01293     709.6936    -21.39932   -16983.519    1906.5086   -15077.011 
99630000    303.10921    297.86256    9.1514785    35.649631   -16908.603    1903.6977   -15004.906 
99640000    309.82216    298.38154   -186.90819    36.311148   -16860.378    1945.8588   -14914.519 
99650000    299.91559    298.02061   -237.54099    -13.48861    -16868.04    1883.6399     -14984.4 
99660000    295.23019    297.90227     136.4722   -23.385402    -16816.17    1854.2129   -14961.957 
99670000    290.76706    298.60188   -507.79858   -67.332151   -16767.097     1826.182   -14940.916 
99680000    305.97163    298.30088    665.65527   -124.71809   -16842.829    1921.6752   -14921.154 
99690000     301.5131    298.14581    87.360867   -33.985338   -16880.408    1893.6731   -14986.735 
99700000    296.03721    298.01124    220.84043   -8.4355673     -16908.4    1859.2814   -15049.119 
99710000    291.95128    297.53807    -186.1616    -69.77797    -16876.14    1833.6195   -15042.521 
99720000    299.15949    298.24711    189.34796   -37.421973   -16946.117    1878.8911   -15067.226 
99730000    292.63307    298.29816   -164.78856   -152.71234   -16855.939    1837.9015   -15018.037 
99740000     297.4937    297.87152   -245.51842    56.559255   -16834.238     1868.429   -14965.809 
99750000    292.52184    297.99471    418.75426   -19.159434   -16850.729     1837.203   -15013.526 
99760000    305.66202    298.42575    50.709928   -9.4753028   -16915.797    1919.7307   -14996.066 
99770000    304.02201    297.85407     1066.152    27.779585   -16855.938    1909.4305   -14946.508 
99780000    298.32171    297.75269   -41.948257   -113.62747   -16792.236    1873.6295   -14918.606 
99790000    298.53309    298.01686    -709.0297     -22.7092   -16825.615     1874.957   -14950.658 
99800000    290.55586    297.45381    440.09474   -31.537515   -16939.301    1824.8555   -15114.445 
99810000    302.86497    298.21068     157.4228   -16.795099   -16790.755    1902.1637   -14888.591 
99820000    298.90673     298.2273     -158.155   -61.900068   -16710.513    1877.3037   -14833.209 
99830000    295.78273    297.71022   -240.91939   -5.8979666   -16923.186    1857.6832   -15065.503 
99840000    302.55688    298.19923    165.18566   -21.436185   -16791.246    1900.2287   -14891.017 
99850000    303.33391    298.28476   -497.07739   -103.11084   -16768.329    1905.1088    -14863.22 
99860000    294.91767    298.06786   -701.45945   -36.113241   -16746.095    1852.2501   -14893.845 
99870000    298.52244    298.03673   -627.76479   -45.796182   -16771.731    1874.8901    -14896.84 
99880000    301.01717    297.69209    52.938107    80.117733   -16813.603    1890.5584   -14923.044 
99890000    299.34213    298.20784   -621.97233    19.752284    -16871.88    1880.0383   -14991.842 
99900000    285.86064    297.89148   -323.17439   -17.349481   -16949.494    1795.3668   -15154.128 
99910000     304.4292    297.49873    240.95435    72.113758   -16867.202    1911.9879   -14955.214 
99920000    298.57929    297.79146    292.78029   -17.282087    -16840.82    1875.2472   -14965.573 
99930000    298.26666    298.40563   -480.59864    40.530451   -16840.695    1873.2837   -14967.412 
99940000    304.42465    298.39863    370.86235   -55.882533   -16883.187    1911.9593   -14971.228 
99950000    304.51511    298.16775   -337.61086    40.003787    -16902.17    1912.5275   -14989.643 
99960000    296.54825    297.86289   -51.536447     22.37594   -16797.082    1862.4911   -14934.591 
99970000    299.96969    298.19283   -364.88352    42.486713   -16855.796    1883.9796   -14971.817 
99980000     284.3583    297.48345   -232.58557    3.5543562   -16868.907    1785.9313   -15082.975 
99990000     308.5287    297.62837   -486.21163   -12.984162   -16975.633    1937.7351   -15037.898 
100000000    293.53248    298.07743    417.49936   -3.3085685   -16854.834    1843.5503   -15011.284 
Loop time of 91590.4 on 128 procs for 100000000 steps with 3108 atoms

Performance: 188.666 ns/day, 0.127 hours/ns, 1091.817 timesteps/s
99.3% CPU use with 128 MPI tasks x no OpenMP threads

MPI task timing breakdown:
Section |  min time  |  avg time  |  max time  |%varavg| %total
---------------------------------------------------------------
Pair    | 19176      | 23078      | 26441      |1171.2 | 25.20
Bond    | 8.4        | 9.6723     | 16.92      |  38.5 |  0.01
Kspace  | 38719      | 42302      | 46127      | 866.4 | 46.19
Neigh   | 2905.6     | 2925.8     | 2941.1     |  13.4 |  3.19
Comm    | 11386      | 12210      | 12914      | 324.8 | 13.33
Output  | 4.7455     | 87.603     | 103.22     | 169.9 |  0.10
Modify  | 8893.8     | 9467.5     | 10011      | 320.1 | 10.34
Other   |            | 1510       |            |       |  1.65

Nlocal:    24.2812 ave 34 max 13 min
Histogram: 1 2 7 16 20 34 32 9 5 2
Nghost:    2861.6 ave 2892 max 2837 min
Histogram: 5 11 25 19 16 17 14 6 12 3
Neighs:    8989.6 ave 11919 max 5087 min
Histogram: 1 1 6 16 26 25 20 11 16 6

Total # of neighbors = 1150669
Ave neighs/atom = 370.228
Ave special neighs/atom = 1.9305
Neighbor list builds = 8645931
Dangerous builds = 0

JOB STATISTICS
==============
Job ID: 2423594
Cluster: snellius
User/Group: phabibi/phabibi
State: RUNNING
Nodes: 1
Cores per node: 128
CPU Utilized: 00:00:00
CPU Efficiency: 0.00% of 151-07:19:28 core-walltime
Job Wall-clock time: 1-04:22:11
Memory Utilized: 0.00 MB (estimated maximum)
Memory Efficiency: 0.00% of 224.00 GB (1.75 GB/core)
WARNING: Efficiency statistics may be misleading for RUNNING jobs.
