LAMMPS (16 Mar 2018)
Reading data file ...
  orthogonal box = (0 0 0) to (25.8482 25.8482 25.8482)
  2 by 2 by 3 MPI processor grid
  reading atoms ...
  1572 atoms
  scanning bonds ...
  2 = max bonds/atom
  scanning angles ...
  1 = max angles/atom
  reading bonds ...
  1000 bonds
  reading angles ...
  500 angles
Finding 1-2 1-3 1-4 neighbors ...
  special bond factors lj:   0          0          0         
  special bond factors coul: 0          0          0         
  2 = max # of 1-2 neighbors
  1 = max # of 1-3 neighbors
  1 = max # of 1-4 neighbors
  2 = max # of special neighbors
Setting atom values ...
  500 settings made for charge
Setting atom values ...
  1000 settings made for charge
Setting atom values ...
  36 settings made for charge
Setting atom values ...
  36 settings made for charge
500 atoms in group wat
36 atoms in group K
36 atoms in group Cl
Finding SHAKE clusters ...
  0 = # of size 2 clusters
  0 = # of size 3 clusters
  0 = # of size 4 clusters
  500 = # of frozen angles
PPPM initialization ...
  extracting TIP4P info from pair style
  using 12-bit tables for long-range coulomb (../kspace.cpp:321)
  G vector (1/distance) = 0.309797
  grid = 24 24 24
  stencil order = 5
  estimated absolute RMS force accuracy = 0.00375155
  estimated relative force accuracy = 1.12977e-05
  using double precision FFTs
  3d grid and FFT values/proc = 5415 1152
Neighbor list info ...
  update every 1 steps, delay 0 steps, check yes
  max neighbors/atom: 2000, page size: 100000
  master list distance cutoff = 12.3092
  ghost atom cutoff = 12.3092
  binsize = 6.1546, bins = 5 5 5
  1 neighbor lists, perpetual/occasional/extra = 1 0 0
  (1) pair lj/cut/tip4p/long, perpetual
      attributes: half, newton on
      pair build: half/bin/newton
      stencil: half/bin/3d/newton
      bin: standard
Setting up Verlet run ...
  Unit style    : real
  Current step  : 0
  Time step     : 0.001
Per MPI rank memory allocation (min/avg/max) = 8.286 | 8.289 | 8.293 Mbytes
Step Density Temp Press TotEng 
       0    1.1241608    437.34234      3475910    2311.9202 
   10000    1.0212586    1115.5667    15029.729    367.93858 
Loop time of 39.9738 on 12 procs for 10000 steps with 1572 atoms

Performance: 0.022 ns/day, 1110.384 hours/ns, 250.164 timesteps/s
93.8% CPU use with 12 MPI tasks x no OpenMP threads

MPI task timing breakdown:
Section |  min time  |  avg time  |  max time  |%varavg| %total
---------------------------------------------------------------
Pair    | 21.478     | 23.307     | 26.525     |  30.3 | 58.31
Bond    | 0.0057082  | 0.0065024  | 0.0075627  |   0.6 |  0.02
Kspace  | 7.1679     | 10.412     | 12.248     |  45.5 | 26.05
Neigh   | 0.0017962  | 0.0018093  | 0.0018343  |   0.0 |  0.00
Comm    | 1.2747     | 1.298      | 1.3423     |   1.8 |  3.25
Output  | 5.9828e-05 | 7.5551e-05 | 0.00023258 |   0.0 |  0.00
Modify  | 4.4577     | 4.7292     | 4.7859     |   3.9 | 11.83
Other   |            | 0.2183     |            |       |  0.55

Nlocal:    131 ave 140 max 124 min
Histogram: 1 3 1 1 2 0 1 1 1 1
Nghost:    4118.58 ave 4178 max 4029 min
Histogram: 2 1 1 0 0 0 0 3 3 2
Neighs:    44020.2 ave 48527 max 41019 min
Histogram: 2 2 1 2 1 1 1 0 1 1

Total # of neighbors = 528243
Ave neighs/atom = 336.032
Ave special neighs/atom = 1.9084
Neighbor list builds = 1
Dangerous builds = 0
PPPM initialization ...
  extracting TIP4P info from pair style
  using 12-bit tables for long-range coulomb (../kspace.cpp:321)
  G vector (1/distance) = 0.310431
  grid = 25 25 25
  stencil order = 5
  estimated absolute RMS force accuracy = 0.00343737
  estimated relative force accuracy = 1.03515e-05
  using double precision FFTs
  3d grid and FFT values/proc = 6400 1875
Setting up Verlet run ...
  Unit style    : real
  Current step  : 10000
  Time step     : 0.01
Per MPI rank memory allocation (min/avg/max) = 8.324 | 8.349 | 8.395 Mbytes
Step Density Temp Press TotEng 
   10000    1.0212586    1115.5667    1454023.6    367.93524 
   20000    1.1554581    294.69212   -1490.1639   -7265.4164 
Loop time of 41.3729 on 12 procs for 10000 steps with 1572 atoms

Performance: 0.209 ns/day, 114.925 hours/ns, 241.704 timesteps/s
91.9% CPU use with 12 MPI tasks x no OpenMP threads

MPI task timing breakdown:
Section |  min time  |  avg time  |  max time  |%varavg| %total
---------------------------------------------------------------
Pair    | 20.84      | 22.529     | 24.935     |  22.6 | 54.45
Bond    | 0.0061379  | 0.007006   | 0.0094558  |   1.3 |  0.02
Kspace  | 8.1943     | 10.591     | 12.267     |  32.9 | 25.60
Neigh   | 0.015761   | 0.015805   | 0.015871   |   0.0 |  0.04
Comm    | 1.2271     | 1.259      | 1.2805     |   1.5 |  3.04
Output  | 6.0424e-05 | 7.6303e-05 | 0.00023693 |   0.0 |  0.00
Modify  | 4.6358     | 5.1432     | 6.8277     |  22.9 | 12.43
Other   |            | 1.828      |            |       |  4.42

Nlocal:    131 ave 136 max 128 min
Histogram: 2 1 1 4 0 2 1 0 0 1
Nghost:    4249.75 ave 4348 max 4152 min
Histogram: 2 1 1 0 2 0 2 2 1 1
Neighs:    46964.6 ave 50243 max 43990 min
Histogram: 1 3 0 0 3 1 1 0 2 1

Total # of neighbors = 563575
Ave neighs/atom = 358.508
Ave special neighs/atom = 1.9084
Neighbor list builds = 9
Dangerous builds = 0
PPPM initialization ...
  extracting TIP4P info from pair style
  using 12-bit tables for long-range coulomb (../kspace.cpp:321)
  G vector (1/distance) = 0.310458
  grid = 24 24 24
  stencil order = 5
  estimated absolute RMS force accuracy = 0.0036506
  estimated relative force accuracy = 1.09937e-05
  using double precision FFTs
  3d grid and FFT values/proc = 5415 1152
Setting up Verlet run ...
  Unit style    : real
  Current step  : 20000
  Time step     : 0.1
Per MPI rank memory allocation (min/avg/max) = 8.286 | 8.29 | 8.293 Mbytes
Step Density Temp Press TotEng 
   20000    1.1554581    294.69212   -29487.536   -7265.4326 
   30000    1.1647404    293.02876    173.02211   -8384.6122 
Loop time of 42.7303 on 12 procs for 10000 steps with 1572 atoms

Performance: 2.022 ns/day, 11.870 hours/ns, 234.026 timesteps/s
94.4% CPU use with 12 MPI tasks x no OpenMP threads

MPI task timing breakdown:
Section |  min time  |  avg time  |  max time  |%varavg| %total
---------------------------------------------------------------
Pair    | 22.673     | 26.206     | 28.546     |  32.3 | 61.33
Bond    | 0.0057402  | 0.0066307  | 0.0079525  |   0.7 |  0.02
Kspace  | 7.7842     | 10.125     | 13.658     |  52.0 | 23.70
Neigh   | 0.085384   | 0.085775   | 0.086256   |   0.1 |  0.20
Comm    | 1.2967     | 1.3103     | 1.3232     |   0.6 |  3.07
Output  | 6.1929e-05 | 7.7213e-05 | 0.00023629 |   0.0 |  0.00
Modify  | 4.5028     | 4.778      | 4.8313     |   3.9 | 11.18
Other   |            | 0.2186     |            |       |  0.51

Nlocal:    131 ave 140 max 119 min
Histogram: 1 2 0 1 0 2 0 2 3 1
Nghost:    4246.08 ave 4315 max 4141 min
Histogram: 2 1 0 1 0 0 1 3 1 3
Neighs:    47881.8 ave 53661 max 40883 min
Histogram: 1 1 1 1 1 2 1 1 0 3

Total # of neighbors = 574582
Ave neighs/atom = 365.51
Ave special neighs/atom = 1.9084
Neighbor list builds = 44
Dangerous builds = 0
PPPM initialization ...
  extracting TIP4P info from pair style
  using 12-bit tables for long-range coulomb (../kspace.cpp:321)
  G vector (1/distance) = 0.31065
  grid = 24 24 24
  stencil order = 5
  estimated absolute RMS force accuracy = 0.00362171
  estimated relative force accuracy = 1.09067e-05
  using double precision FFTs
  3d grid and FFT values/proc = 5415 1152
Setting up Verlet run ...
  Unit style    : real
  Current step  : 30000
  Time step     : 0.2
Per MPI rank memory allocation (min/avg/max) = 8.286 | 8.311 | 8.535 Mbytes
Step Density Temp Press TotEng 
   30000    1.1647404    293.02876    -6655.483   -8384.6121 
   40000    1.1715699    295.00136    12.219207   -8374.5431 
Loop time of 43.8876 on 12 procs for 10000 steps with 1572 atoms

Performance: 3.937 ns/day, 6.096 hours/ns, 227.855 timesteps/s
93.4% CPU use with 12 MPI tasks x no OpenMP threads

MPI task timing breakdown:
Section |  min time  |  avg time  |  max time  |%varavg| %total
---------------------------------------------------------------
Pair    | 23.898     | 26.449     | 29.468     |  33.7 | 60.27
Bond    | 0.0059007  | 0.0067923  | 0.007719   |   0.6 |  0.02
Kspace  | 7.9033     | 10.929     | 13.475     |  52.5 | 24.90
Neigh   | 0.17025    | 0.17102    | 0.17161    |   0.1 |  0.39
Comm    | 1.3228     | 1.3336     | 1.3465     |   0.6 |  3.04
Output  | 6.0871e-05 | 7.7346e-05 | 0.00024265 |   0.0 |  0.00
Modify  | 4.5051     | 4.782      | 4.8368     |   3.9 | 10.90
Other   |            | 0.2155     |            |       |  0.49

Nlocal:    131 ave 145 max 120 min
Histogram: 2 2 0 0 2 3 1 1 0 1
Nghost:    4248.08 ave 4289 max 4211 min
Histogram: 1 2 0 2 1 2 2 0 1 1
Neighs:    48627.8 ave 54526 max 41989 min
Histogram: 2 1 1 0 2 0 1 2 2 1

Total # of neighbors = 583533
Ave neighs/atom = 371.204
Ave special neighs/atom = 1.9084
Neighbor list builds = 85
Dangerous builds = 0
PPPM initialization ...
  extracting TIP4P info from pair style
  using 12-bit tables for long-range coulomb (../kspace.cpp:321)
  G vector (1/distance) = 0.31079
  grid = 24 24 24
  stencil order = 5
  estimated absolute RMS force accuracy = 0.00360075
  estimated relative force accuracy = 1.08436e-05
  using double precision FFTs
  3d grid and FFT values/proc = 5415 1152
Setting up Verlet run ...
  Unit style    : real
  Current step  : 40000
  Time step     : 0.5
Per MPI rank memory allocation (min/avg/max) = 8.286 | 8.394 | 8.665 Mbytes
Step Density Temp Press TotEng 
   40000    1.1715699    295.00136    1311.5925   -8374.5433 
   50000    1.1395749    295.58846    276.28549   -8418.3012 
Loop time of 43.8565 on 12 procs for 10000 steps with 1572 atoms

Performance: 9.850 ns/day, 2.436 hours/ns, 228.017 timesteps/s
93.7% CPU use with 12 MPI tasks x no OpenMP threads

MPI task timing breakdown:
Section |  min time  |  avg time  |  max time  |%varavg| %total
---------------------------------------------------------------
Pair    | 22.084     | 26.281     | 29.12      |  38.2 | 59.93
Bond    | 0.0060597  | 0.0067605  | 0.0079277  |   0.7 |  0.02
Kspace  | 7.9084     | 10.764     | 14.959     |  59.7 | 24.54
Neigh   | 0.42577    | 0.42648    | 0.42706    |   0.1 |  0.97
Comm    | 1.3479     | 1.3628     | 1.3829     |   0.8 |  3.11
Output  | 6.2928e-05 | 7.8337e-05 | 0.00023887 |   0.0 |  0.00
Modify  | 4.5192     | 4.7975     | 4.852      |   3.9 | 10.94
Other   |            | 0.2173     |            |       |  0.50

Nlocal:    131 ave 142 max 121 min
Histogram: 2 2 0 2 0 2 0 1 1 2
Nghost:    4174.33 ave 4224 max 4110 min
Histogram: 1 1 0 1 2 1 2 1 1 2
Neighs:    46764.2 ave 54094 max 40894 min
Histogram: 3 0 1 0 1 3 2 1 0 1

Total # of neighbors = 561170
Ave neighs/atom = 356.978
Ave special neighs/atom = 1.9084
Neighbor list builds = 213
Dangerous builds = 0
PPPM initialization ...
  extracting TIP4P info from pair style
  using 12-bit tables for long-range coulomb (../kspace.cpp:321)
  G vector (1/distance) = 0.310125
  grid = 24 24 24
  stencil order = 5
  estimated absolute RMS force accuracy = 0.00370113
  estimated relative force accuracy = 1.11458e-05
  using double precision FFTs
  3d grid and FFT values/proc = 5415 1152
Setting up Verlet run ...
  Unit style    : real
  Current step  : 0
  Time step     : 1
Per MPI rank memory allocation (min/avg/max) = 8.286 | 8.466 | 8.665 Mbytes
Step Density Temp Press TotEng 
       0    1.1395749    295.58846   -547.32385    -8418.302 
  100000    1.1399477    287.18402   -349.54801   -8414.3158 
  200000    1.1535782    303.40692    606.13313   -8423.4555 
  300000    1.1664848    299.33442    675.41066   -8397.2405 
  400000    1.1591636    280.62546    745.48276   -8464.6819 
  500000    1.1377749      295.067   -638.82254   -8372.0152 
  600000    1.1528582    295.28492    543.16025   -8447.8322 
  700000    1.1521975    297.21627   -252.85362   -8455.8378 
  800000     1.141799    281.07583   -1167.2286   -8440.6386 
  900000    1.1500921    293.49176    35.329129   -8385.8802 
 1000000    1.1380777    310.63826    -829.5989   -8428.7139 
 1100000    1.1470549    297.06615    909.00317    -8308.114 
 1200000    1.1420523    295.21102    -369.1315   -8363.2225 
 1300000    1.1528071    305.76129   -1102.1567   -8340.3389 
 1400000    1.1720079    288.55946    686.73661   -8421.6577 
 1500000    1.1440958    297.48715   -217.02145   -8402.5131 
 1600000    1.1661746    305.63032    529.55632    -8358.281 
 1700000    1.1623631     295.3678    1082.8944   -8459.0898 
 1800000    1.1310655    300.81757   -219.41344   -8404.4508 
 1900000    1.1378724    288.90647    434.49502   -8448.1976 
 2000000    1.1561542    298.49057    301.95351   -8367.4535 
 2100000    1.1446784    299.79377    175.12006   -8386.4719 
 2200000    1.1521071    297.31796   -1195.2363   -8432.8423 
 2300000    1.1707681    291.53846   -764.40756   -8439.1913 
 2400000    1.1472219    292.55056   -167.67886   -8458.6035 
 2500000    1.1556772    295.78783   -605.17146    -8375.604 
 2600000    1.1402339    290.35888   -355.32323   -8456.1678 
 2700000    1.1527452    288.95881   -19.822323   -8417.9311 
 2800000    1.1513476    295.65844   -189.39818   -8370.1744 
 2900000    1.1551425     299.7724   -1123.7741   -8415.2747 
 3000000    1.1483176    299.66528    376.23125   -8406.2206 
 3100000    1.1539632    286.74223   -1213.2365   -8447.8549 
 3200000    1.1427909    295.36237   -30.222205   -8413.6081 
 3300000     1.159793     299.2782   -120.98468   -8478.4284 
 3400000    1.1277526    299.49291    -1419.829   -8336.8897 
 3500000    1.1626329    294.93828    162.87226   -8416.4329 
 3600000    1.1561748    301.71507   -185.19221   -8352.2517 
 3700000    1.1491533    304.15097    342.05683   -8338.7504 
 3800000      1.17271    300.67927    1785.9115   -8384.0408 
 3900000    1.1462703    295.10831    58.068433   -8454.0094 
 4000000    1.1559668    299.85388   -765.42402   -8368.2846 
 4100000    1.1665976    309.47534   -222.05906   -8296.3911 
 4200000    1.1590283    299.25485    196.60937   -8420.7438 
 4300000    1.1465347    287.57017    401.74351   -8484.2816 
 4400000    1.1493978    301.56368   -1041.5774   -8361.6685 
 4500000    1.1456194    300.23122    -3.876515   -8404.6984 
 4600000    1.1371197    292.73632    360.40479   -8362.6261 
 4700000    1.1423266     298.5227   -594.50442   -8392.0273 
 4800000    1.1430223    300.30564    111.11054   -8487.4814 
 4900000    1.1620638    303.97725    329.93503   -8383.3272 
 5000000     1.152643    299.67026   -570.53507   -8385.7717 
Loop time of 22346.6 on 12 procs for 5000000 steps with 1572 atoms

Performance: 19.332 ns/day, 1.241 hours/ns, 223.748 timesteps/s
93.7% CPU use with 12 MPI tasks x no OpenMP threads

MPI task timing breakdown:
Section |  min time  |  avg time  |  max time  |%varavg| %total
---------------------------------------------------------------
Pair    | 12363      | 13321      | 14203      | 555.8 | 59.61
Bond    | 2.9332     | 3.3745     | 3.9669     |  15.4 |  0.02
Kspace  | 4503.2     | 5384.3     | 6344.7     | 874.8 | 24.09
Neigh   | 412.87     | 413.12     | 413.48     |   0.8 |  1.85
Comm    | 699.42     | 705.82     | 712.58     |  13.8 |  3.16
Output  | 0.0030838  | 0.0038792  | 0.012182   |   4.0 |  0.00
Modify  | 2270.8     | 2410       | 2436.7     |  87.6 | 10.78
Other   |            | 108.9      |            |       |  0.49

Nlocal:    131 ave 145 max 121 min
Histogram: 2 1 1 1 2 3 0 1 0 1
Nghost:    4198 ave 4247 max 4116 min
Histogram: 1 0 1 0 2 1 1 2 2 2
Neighs:    47669.3 ave 55145 max 39983 min
Histogram: 1 1 0 2 2 1 3 0 0 2

Total # of neighbors = 572032
Ave neighs/atom = 363.888
Ave special neighs/atom = 1.9084
Neighbor list builds = 203622
Dangerous builds = 0
PPPM initialization ...
  extracting TIP4P info from pair style
  using 12-bit tables for long-range coulomb (../kspace.cpp:321)
  G vector (1/distance) = 0.310399
  grid = 24 24 24
  stencil order = 5
  estimated absolute RMS force accuracy = 0.00365945
  estimated relative force accuracy = 1.10203e-05
  using double precision FFTs
  3d grid and FFT values/proc = 5415 1152
Setting up Verlet run ...
  Unit style    : real
  Current step  : 0
  Time step     : 1
Per MPI rank memory allocation (min/avg/max) = 8.658 | 8.662 | 8.666 Mbytes
Step Density Temp Press TotEng 
       0     1.152643    299.67026   -570.24905   -8385.7718 
  100000    1.1622914     306.0085    1.3278389    -8412.548 
  200000    1.1398864    291.64472   -905.61439   -8434.4722 
  300000    1.1448651    302.19789    254.73911   -8372.2989 
  400000    1.1413749    291.09154    280.73857   -8481.5272 
  500000    1.1514225    300.67062    372.04665   -8344.7366 
  600000     1.165582    285.59047   -343.64273   -8449.6761 
  700000    1.1589003     296.2844   -835.67127   -8394.6129 
  800000    1.1373378    308.98243   -114.79319     -8478.19 
  900000    1.1426643    298.82027    365.85597   -8342.0754 
 1000000    1.1425605    299.42681    434.55228   -8428.0377 
 1100000    1.1434756    303.68031   -723.39387   -8390.3558 
 1200000    1.1491161    296.20308   -1050.0464   -8366.1529 
 1300000    1.1590962    308.03349    395.60066   -8426.6475 
 1400000    1.1723948    296.04911     467.2754   -8389.5543 
 1500000    1.1556516    297.11855   -25.858054   -8387.4479 
 1600000    1.1631877    314.66833    694.24138   -8415.9087 
 1700000    1.1434268    301.65891   -92.675415   -8431.0125 
 1800000    1.1678146    295.09525   -203.54377   -8429.7098 
 1900000    1.1519636    298.18432    390.13718   -8398.9203 
 2000000    1.1498218    290.90664    630.17313   -8429.5497 
 2100000    1.1606156    282.72167    398.52102    -8439.259 
 2200000    1.1457948    303.20955   -882.78889   -8395.4088 
 2300000    1.1392777    303.93328   -413.55321   -8381.8015 
 2400000    1.1540191    296.92573    188.94085   -8450.6818 
 2500000    1.1669187    298.04679    618.61941   -8387.3907 
 2600000    1.1664518    303.62629    535.51651   -8445.3621 
 2700000    1.1517907    309.41124   -203.95537   -8381.6037 
 2800000    1.1407912    295.71926    135.62413   -8471.5149 
 2900000    1.1640208    295.82081    819.90488   -8456.8494 
 3000000     1.164238    298.96278   -255.30047   -8377.4274 
 3100000    1.1714096    301.43782    953.91733   -8366.6107 
 3200000    1.1566538     292.3295    -335.5005   -8335.8616 
 3300000    1.1555219    291.20844    107.26395   -8417.6504 
 3400000    1.1622809    309.08696   -99.708031   -8402.2865 
 3500000    1.1605362    295.37322   -752.98511   -8411.5504 
 3600000     1.162484    290.55827    176.68233   -8456.8347 
 3700000    1.1534146    295.71472   -525.93409   -8398.2053 
 3800000    1.1316332    292.70786    1.6527097   -8435.6522 
 3900000    1.1632693    279.73523    270.58795   -8472.5801 
 4000000    1.1631666    314.20554    1211.0236   -8418.1688 
 4100000    1.1714105    291.82587     821.0405   -8442.1174 
 4200000    1.1444943    302.99645    -584.1095   -8365.5443 
 4300000    1.1599082    302.32733    1465.9956   -8335.4033 
 4400000    1.1554617    302.44156   -339.74163   -8400.7824 
 4500000    1.1557992    289.42659   -254.51669   -8421.0403 
 4600000    1.1450783    286.98658   -273.16022   -8397.1294 
 4700000    1.1571043    300.61845    670.21992   -8338.9646 
 4800000    1.1399877    289.22273   -128.26242   -8414.8682 
 4900000     1.154595    297.54808    83.641593   -8395.5698 
 5000000    1.1522161    299.48227    -656.5861   -8408.3458 
Loop time of 22420.6 on 12 procs for 5000000 steps with 1572 atoms

Performance: 19.268 ns/day, 1.246 hours/ns, 223.009 timesteps/s
93.8% CPU use with 12 MPI tasks x no OpenMP threads

MPI task timing breakdown:
Section |  min time  |  avg time  |  max time  |%varavg| %total
---------------------------------------------------------------
Pair    | 12422      | 13324      | 14048      | 482.2 | 59.43
Bond    | 3.0966     | 3.5567     | 4.172      |  18.4 |  0.02
Kspace  | 4557.5     | 5280       | 6183.7     | 766.5 | 23.55
Neigh   | 412.79     | 413.13     | 413.49     |   1.0 |  1.84
Comm    | 699.19     | 706.3      | 714.12     |  15.0 |  3.15
Output  | 0.22187    | 0.22237    | 0.22737    |   0.3 |  0.00
Modify  | 2445.6     | 2584.5     | 2611.9     |  84.4 | 11.53
Other   |            | 109        |            |       |  0.49

Nlocal:    131 ave 141 max 125 min
Histogram: 2 4 0 2 0 0 2 0 0 2
Nghost:    4199.25 ave 4259 max 4156 min
Histogram: 3 1 0 1 2 2 1 1 0 1
Neighs:    47660.1 ave 53458 max 42974 min
Histogram: 3 0 2 0 1 2 1 1 1 1

Total # of neighbors = 571921
Ave neighs/atom = 363.817
Ave special neighs/atom = 1.9084
Neighbor list builds = 203606
Dangerous builds = 0
Changing box ...
  orthogonal box = (0.105759 0.105759 0.105759) to (25.7366 25.7425 25.7425)
  orthogonal box = (0.105759 0.105759 0.105759) to (25.7366 25.7366 25.7425)
  orthogonal box = (0.105759 0.105759 0.105759) to (25.7366 25.7366 25.7366)
PPPM initialization ...
  extracting TIP4P info from pair style
  using 12-bit tables for long-range coulomb (../kspace.cpp:321)
  G vector (1/distance) = 0.310407
  grid = 24 24 24
  stencil order = 5
  estimated absolute RMS force accuracy = 0.00365829
  estimated relative force accuracy = 1.10168e-05
  using double precision FFTs
  3d grid and FFT values/proc = 5415 1152
Setting up Verlet run ...
  Unit style    : real
  Current step  : 5000000
  Time step     : 0.001
Per MPI rank memory allocation (min/avg/max) = 8.658 | 8.663 | 8.666 Mbytes
Step Density Temp Press TotEng 
 5000000    1.1530117    299.48227    70294.702   -8404.1317 
 5010000    1.1530117    299.19773    -348.4777   -8409.0362 
Loop time of 29.7124 on 12 procs for 10000 steps with 1572 atoms

Performance: 0.029 ns/day, 825.344 hours/ns, 336.560 timesteps/s
94.2% CPU use with 12 MPI tasks x no OpenMP threads

MPI task timing breakdown:
Section |  min time  |  avg time  |  max time  |%varavg| %total
---------------------------------------------------------------
Pair    | 16.401     | 18.291     | 20.226     |  28.4 | 61.56
Bond    | 0.0034338  | 0.0041661  | 0.0052015  |   0.8 |  0.01
Kspace  | 7.0085     | 8.8746     | 10.768     |  39.7 | 29.87
Neigh   | 0          | 0          | 0          |   0.0 |  0.00
Comm    | 1.2565     | 1.3339     | 1.4496     |   5.8 |  4.49
Output  | 6.2108e-05 | 7.627e-05  | 0.00021677 |   0.0 |  0.00
Modify  | 1.0284     | 1.041      | 1.0539     |   0.8 |  3.50
Other   |            | 0.1671     |            |       |  0.56

Nlocal:    131 ave 141 max 125 min
Histogram: 3 3 1 1 0 0 2 0 0 2
Nghost:    4205 ave 4269 max 4159 min
Histogram: 3 1 0 0 3 2 1 1 0 1
Neighs:    47693.7 ave 53326 max 42723 min
Histogram: 2 1 1 1 0 3 1 1 1 1

Total # of neighbors = 572324
Ave neighs/atom = 364.074
Ave special neighs/atom = 1.9084
Neighbor list builds = 0
Dangerous builds = 0
PPPM initialization ...
  extracting TIP4P info from pair style
  using 12-bit tables for long-range coulomb (../kspace.cpp:321)
  G vector (1/distance) = 0.310407
  grid = 24 24 24
  stencil order = 5
  estimated absolute RMS force accuracy = 0.00365829
  estimated relative force accuracy = 1.10168e-05
  using double precision FFTs
  3d grid and FFT values/proc = 5415 1152
Setting up Verlet run ...
  Unit style    : real
  Current step  : 5010000
  Time step     : 0.01
Per MPI rank memory allocation (min/avg/max) = 8.658 | 8.663 | 8.666 Mbytes
Step Density Temp Press TotEng 
 5010000    1.1530117    299.19773   -348.47569   -8409.0362 
 5020000    1.1530117    306.17043    654.63752   -8373.0182 
Loop time of 29.2534 on 12 procs for 10000 steps with 1572 atoms

Performance: 0.295 ns/day, 81.259 hours/ns, 341.841 timesteps/s
94.6% CPU use with 12 MPI tasks x no OpenMP threads

MPI task timing breakdown:
Section |  min time  |  avg time  |  max time  |%varavg| %total
---------------------------------------------------------------
Pair    | 16.266     | 18.206     | 19.416     |  22.5 | 62.23
Bond    | 0.0032757  | 0.0042088  | 0.0053561  |   0.9 |  0.01
Kspace  | 7.2749     | 8.4957     | 10.421     |  32.6 | 29.04
Neigh   | 0.0058227  | 0.005836   | 0.0058457  |   0.0 |  0.02
Comm    | 1.2552     | 1.3135     | 1.3611     |   2.8 |  4.49
Output  | 6.0678e-05 | 7.6751e-05 | 0.00023369 |   0.0 |  0.00
Modify  | 1.0522     | 1.0615     | 1.0712     |   0.5 |  3.63
Other   |            | 0.1668     |            |       |  0.57

Nlocal:    131 ave 138 max 124 min
Histogram: 2 0 2 0 2 0 1 3 1 1
Nghost:    4212.58 ave 4263 max 4150 min
Histogram: 1 0 0 2 2 2 1 2 1 1
Neighs:    47709.8 ave 51279 max 42405 min
Histogram: 1 0 0 2 2 1 0 3 1 2

Total # of neighbors = 572517
Ave neighs/atom = 364.197
Ave special neighs/atom = 1.9084
Neighbor list builds = 3
Dangerous builds = 0
PPPM initialization ...
  extracting TIP4P info from pair style
  using 12-bit tables for long-range coulomb (../kspace.cpp:321)
  G vector (1/distance) = 0.310407
  grid = 24 24 24
  stencil order = 5
  estimated absolute RMS force accuracy = 0.00365829
  estimated relative force accuracy = 1.10168e-05
  using double precision FFTs
  3d grid and FFT values/proc = 5415 1152
Setting up Verlet run ...
  Unit style    : real
  Current step  : 5020000
  Time step     : 0.1
Per MPI rank memory allocation (min/avg/max) = 8.658 | 8.663 | 8.666 Mbytes
Step Density Temp Press TotEng 
 5020000    1.1530117    306.17043    654.51607   -8373.0182 
 5030000    1.1530117    302.77965    280.05183   -8401.1469 
Loop time of 29.9299 on 12 procs for 10000 steps with 1572 atoms

Performance: 2.887 ns/day, 8.314 hours/ns, 334.114 timesteps/s
94.1% CPU use with 12 MPI tasks x no OpenMP threads

MPI task timing breakdown:
Section |  min time  |  avg time  |  max time  |%varavg| %total
---------------------------------------------------------------
Pair    | 14.795     | 18.378     | 19.937     |  31.5 | 61.40
Bond    | 0.0034779  | 0.0041274  | 0.0049195  |   0.6 |  0.01
Kspace  | 7.4037     | 8.9017     | 12.416     |  44.4 | 29.74
Neigh   | 0.079675   | 0.07975    | 0.079835   |   0.0 |  0.27
Comm    | 1.2819     | 1.341      | 1.4045     |   3.2 |  4.48
Output  | 5.9843e-05 | 7.4863e-05 | 0.00022815 |   0.0 |  0.00
Modify  | 1.0474     | 1.0568     | 1.0669     |   0.5 |  3.53
Other   |            | 0.1686     |            |       |  0.56

Nlocal:    131 ave 142 max 108 min
Histogram: 1 0 0 0 0 2 3 3 1 2
Nghost:    4187.17 ave 4250 max 4105 min
Histogram: 1 0 0 2 4 0 1 1 1 2
Neighs:    47716.5 ave 55127 max 36245 min
Histogram: 1 0 0 1 0 3 2 4 0 1

Total # of neighbors = 572598
Ave neighs/atom = 364.248
Ave special neighs/atom = 1.9084
Neighbor list builds = 40
Dangerous builds = 0
PPPM initialization ...
  extracting TIP4P info from pair style
  using 12-bit tables for long-range coulomb (../kspace.cpp:321)
  G vector (1/distance) = 0.310407
  grid = 24 24 24
  stencil order = 5
  estimated absolute RMS force accuracy = 0.00365829
  estimated relative force accuracy = 1.10168e-05
  using double precision FFTs
  3d grid and FFT values/proc = 5415 1152
Setting up Verlet run ...
  Unit style    : real
  Current step  : 5030000
  Time step     : 0.2
Per MPI rank memory allocation (min/avg/max) = 8.658 | 8.663 | 8.666 Mbytes
Step Density Temp Press TotEng 
 5030000    1.1530117    302.77965    279.67068   -8401.1469 
 5040000    1.1530117     293.6528    77.653789   -8440.4406 
Loop time of 30.0559 on 12 procs for 10000 steps with 1572 atoms

Performance: 5.749 ns/day, 4.174 hours/ns, 332.714 timesteps/s
94.4% CPU use with 12 MPI tasks x no OpenMP threads

MPI task timing breakdown:
Section |  min time  |  avg time  |  max time  |%varavg| %total
---------------------------------------------------------------
Pair    | 16.783     | 18.454     | 19.499     |  19.7 | 61.40
Bond    | 0.0035968  | 0.0042594  | 0.0050063  |   0.6 |  0.01
Kspace  | 7.8029     | 8.8533     | 10.49      |  27.9 | 29.46
Neigh   | 0.16041    | 0.16064    | 0.16085    |   0.0 |  0.53
Comm    | 1.322      | 1.3601     | 1.3884     |   1.8 |  4.53
Output  | 6.3539e-05 | 7.8951e-05 | 0.00023659 |   0.0 |  0.00
Modify  | 1.0462     | 1.0565     | 1.0709     |   0.7 |  3.52
Other   |            | 0.167      |            |       |  0.56

Nlocal:    131 ave 139 max 122 min
Histogram: 1 0 2 1 3 0 0 3 0 2
Nghost:    4200.42 ave 4253 max 4154 min
Histogram: 2 1 1 1 1 1 2 0 2 1
Neighs:    47732.2 ave 51852 max 43568 min
Histogram: 2 0 0 2 2 2 1 1 0 2

Total # of neighbors = 572787
Ave neighs/atom = 364.368
Ave special neighs/atom = 1.9084
Neighbor list builds = 82
Dangerous builds = 0
PPPM initialization ...
  extracting TIP4P info from pair style
  using 12-bit tables for long-range coulomb (../kspace.cpp:321)
  G vector (1/distance) = 0.310407
  grid = 24 24 24
  stencil order = 5
  estimated absolute RMS force accuracy = 0.00365829
  estimated relative force accuracy = 1.10168e-05
  using double precision FFTs
  3d grid and FFT values/proc = 5415 1152
Setting up Verlet run ...
  Unit style    : real
  Current step  : 5040000
  Time step     : 0.5
Per MPI rank memory allocation (min/avg/max) = 8.658 | 8.663 | 8.666 Mbytes
Step Density Temp Press TotEng 
 5040000    1.1530117     293.6528    77.693868   -8440.4406 
 5050000    1.1530117    298.33406    110.63494   -8388.0925 
Loop time of 30.5922 on 12 procs for 10000 steps with 1572 atoms

Performance: 14.121 ns/day, 1.700 hours/ns, 326.881 timesteps/s
94.1% CPU use with 12 MPI tasks x no OpenMP threads

MPI task timing breakdown:
Section |  min time  |  avg time  |  max time  |%varavg| %total
---------------------------------------------------------------
Pair    | 17.033     | 18.624     | 19.919     |  23.5 | 60.88
Bond    | 0.0035824  | 0.0042341  | 0.004917   |   0.6 |  0.01
Kspace  | 7.6699     | 8.9423     | 10.508     |  33.5 | 29.23
Neigh   | 0.3992     | 0.39962    | 0.40026    |   0.0 |  1.31
Comm    | 1.3497     | 1.3751     | 1.4057     |   1.3 |  4.49
Output  | 6.1914e-05 | 7.7669e-05 | 0.00023891 |   0.0 |  0.00
Modify  | 1.0705     | 1.0777     | 1.089      |   0.5 |  3.52
Other   |            | 0.1695     |            |       |  0.55

Nlocal:    131 ave 138 max 124 min
Histogram: 1 0 2 2 1 1 1 2 1 1
Nghost:    4211.17 ave 4283 max 4142 min
Histogram: 1 1 1 1 3 1 1 2 0 1
Neighs:    47700.8 ave 51772 max 41980 min
Histogram: 1 1 1 1 1 1 1 0 2 3

Total # of neighbors = 572409
Ave neighs/atom = 364.128
Ave special neighs/atom = 1.9084
Neighbor list builds = 201
Dangerous builds = 0
PPPM initialization ...
  extracting TIP4P info from pair style
  using 12-bit tables for long-range coulomb (../kspace.cpp:321)
  G vector (1/distance) = 0.310407
  grid = 24 24 24
  stencil order = 5
  estimated absolute RMS force accuracy = 0.00365829
  estimated relative force accuracy = 1.10168e-05
  using double precision FFTs
  3d grid and FFT values/proc = 5415 1152
Setting up Verlet run ...
  Unit style    : real
  Current step  : 5050000
  Time step     : 1
Per MPI rank memory allocation (min/avg/max) = 8.658 | 8.663 | 8.666 Mbytes
Step Density Temp Press TotEng 
 5050000    1.1530117    298.33406    108.34175   -8388.0925 
 5100000    1.1530117    292.13471   -708.53055   -8454.7794 
 5200000    1.1530117    317.46591    281.27689   -8365.4783 
 5300000    1.1530117    293.15102    50.158919   -8484.1497 
 5400000    1.1530117      296.133     970.2994   -8439.0693 
 5500000    1.1530117    299.07668   -213.66002    -8452.792 
 5600000    1.1530117     295.2397    221.69099   -8364.8055 
 5700000    1.1530117    291.32415   -20.363323   -8424.7435 
 5800000    1.1530117    304.70288   -130.37006   -8371.9968 
 5900000    1.1530117    308.35585   -796.92943   -8398.4962 
 6000000    1.1530117    295.43751    862.55531   -8383.8381 
 6100000    1.1530117    322.59371    1000.4137   -8348.2296 
 6200000    1.1530117    301.60043   -225.73415   -8404.8832 
 6300000    1.1530117    289.03699   -49.380347   -8462.5597 
 6400000    1.1530117    292.75024   -381.31928    -8410.792 
 6500000    1.1530117    290.18784    308.69127   -8451.7702 
 6600000    1.1530117     281.8966   -228.23751    -8448.793 
 6700000    1.1530117    296.26406     109.5213    -8454.682 
 6800000    1.1530117    297.42682    141.11083    -8366.163 
 6900000    1.1530117    299.96366      403.621   -8469.5207 
 7000000    1.1530117    294.08144    547.98321   -8446.4906 
 7100000    1.1530117    299.63673    65.798503   -8411.2481 
 7200000    1.1530117    284.95967   -258.72726   -8450.5162 
 7300000    1.1530117    281.82107    194.74019   -8461.1336 
 7400000    1.1530117    309.22242    429.87104   -8366.9751 
 7500000    1.1530117    295.20785   -1540.9564   -8447.6115 
 7550000    1.1530117     293.7198    131.66435   -8475.5577 
Loop time of 7940.35 on 12 procs for 2500000 steps with 1572 atoms

Performance: 27.203 ns/day, 0.882 hours/ns, 314.848 timesteps/s
93.4% CPU use with 12 MPI tasks x no OpenMP threads

MPI task timing breakdown:
Section |  min time  |  avg time  |  max time  |%varavg| %total
---------------------------------------------------------------
Pair    | 4374.4     | 4703.4     | 4962.8     | 311.4 | 59.23
Bond    | 0.86961    | 1.0619     | 1.3036     |  11.4 |  0.01
Kspace  | 2096.3     | 2357.4     | 2681.6     | 438.5 | 29.69
Neigh   | 204.79     | 204.93     | 205.1      |   0.6 |  2.58
Comm    | 350.06     | 355.53     | 360.38     |  15.3 |  4.48
Output  | 0.11012    | 0.1104     | 0.11317    |   0.3 |  0.00
Modify  | 274.01     | 275.71     | 277.9      |   7.4 |  3.47
Other   |            | 42.2       |            |       |  0.53

Nlocal:    131 ave 141 max 120 min
Histogram: 1 0 1 3 1 1 2 1 1 1
Nghost:    4239.5 ave 4279 max 4181 min
Histogram: 1 1 0 0 1 2 3 1 2 1
Neighs:    47687 ave 54177 max 42599 min
Histogram: 2 0 3 1 1 1 1 1 1 1

Total # of neighbors = 572244
Ave neighs/atom = 364.023
Ave special neighs/atom = 1.9084
Neighbor list builds = 100820
Dangerous builds = 0
PPPM initialization ...
  extracting TIP4P info from pair style
  using 12-bit tables for long-range coulomb (../kspace.cpp:321)
  G vector (1/distance) = 0.310407
  grid = 24 24 24
  stencil order = 5
  estimated absolute RMS force accuracy = 0.00365829
  estimated relative force accuracy = 1.10168e-05
  using double precision FFTs
  3d grid and FFT values/proc = 5415 1152
Setting up Verlet run ...
  Unit style    : real
  Current step  : 0
  Time step     : 1
Per MPI rank memory allocation (min/avg/max) = 14.31 | 14.31 | 14.32 Mbytes
Step Density Temp Press TotEng 
       0    1.1530117     293.7198    131.44247   -8475.5577 
  100000    1.1530117    291.18214    260.60155   -8397.6525 
  200000    1.1530117    300.23274   -247.79587   -8378.7672 
  250000    1.1530117    292.30105    276.53412   -8428.5753 
Loop time of 1246.91 on 12 procs for 250000 steps with 1572 atoms

Performance: 17.323 ns/day, 1.385 hours/ns, 200.496 timesteps/s
93.5% CPU use with 12 MPI tasks x no OpenMP threads

MPI task timing breakdown:
Section |  min time  |  avg time  |  max time  |%varavg| %total
---------------------------------------------------------------
Pair    | 702.67     | 760.09     | 811.65     | 130.8 | 60.96
Bond    | 3.322      | 3.3964     | 3.4674     |   2.6 |  0.27
Kspace  | 297.93     | 349.65     | 407.24     | 193.2 | 28.04
Neigh   | 20.507     | 20.521     | 20.541     |   0.2 |  1.65
Comm    | 36.215     | 36.636     | 37.04      |   3.3 |  2.94
Output  | 0.069516   | 0.070202   | 0.07089    |   0.1 |  0.01
Modify  | 71.526     | 71.68      | 71.831     |   1.1 |  5.75
Other   |            | 4.868      |            |       |  0.39

Nlocal:    131 ave 146 max 117 min
Histogram: 1 1 0 0 5 2 1 1 0 1
Nghost:    4216.42 ave 4269 max 4155 min
Histogram: 1 1 0 2 2 2 0 2 0 2
Neighs:    47704.3 ave 55823 max 39353 min
Histogram: 1 0 0 3 1 3 2 0 1 1

Total # of neighbors = 572452
Ave neighs/atom = 364.155
Ave special neighs/atom = 1.9084
Neighbor list builds = 10072
Dangerous builds = 0
PPPM initialization ...
  extracting TIP4P info from pair style
  using 12-bit tables for long-range coulomb (../kspace.cpp:321)
  G vector (1/distance) = 0.310407
  grid = 24 24 24
  stencil order = 5
  estimated absolute RMS force accuracy = 0.00365829
  estimated relative force accuracy = 1.10168e-05
  using double precision FFTs
  3d grid and FFT values/proc = 5415 1152
Setting up Verlet run ...
  Unit style    : real
  Current step  : 250000
  Time step     : 1
Per MPI rank memory allocation (min/avg/max) = 14.31 | 14.31 | 14.32 Mbytes
Step Density Temp Press TotEng 
  250000    1.1530117    292.30105    276.57455   -8428.5753 
  300000    1.1530117    307.44579    82.987913   -8393.7953 
  400000    1.1530117    306.59752    1102.2734   -8362.0628 
  500000    1.1530117    305.03504    28.204442   -8371.9986 
Loop time of 1250.55 on 12 procs for 250000 steps with 1572 atoms

Performance: 17.272 ns/day, 1.390 hours/ns, 199.912 timesteps/s
93.3% CPU use with 12 MPI tasks x no OpenMP threads

MPI task timing breakdown:
Section |  min time  |  avg time  |  max time  |%varavg| %total
---------------------------------------------------------------
Pair    | 697.44     | 759.89     | 823.76     | 135.0 | 60.76
Bond    | 3.2915     | 3.3705     | 3.4286     |   2.4 |  0.27
Kspace  | 289.56     | 353.64     | 416.26     | 198.3 | 28.28
Neigh   | 20.457     | 20.476     | 20.501     |   0.3 |  1.64
Comm    | 36.175     | 36.633     | 37.076     |   3.7 |  2.93
Output  | 0.10109    | 0.10147    | 0.10177    |   0.1 |  0.01
Modify  | 71.454     | 71.586     | 71.734     |   1.0 |  5.72
Other   |            | 4.855      |            |       |  0.39

Nlocal:    131 ave 140 max 122 min
Histogram: 1 2 1 1 2 0 0 2 1 2
Nghost:    4199 ave 4241 max 4135 min
Histogram: 1 1 0 1 0 2 3 1 1 2
Neighs:    47670.5 ave 54055 max 42492 min
Histogram: 2 1 1 2 0 2 2 1 0 1

Total # of neighbors = 572046
Ave neighs/atom = 363.897
Ave special neighs/atom = 1.9084
Neighbor list builds = 10052
Dangerous builds = 0
PPPM initialization ...
  extracting TIP4P info from pair style
  using 12-bit tables for long-range coulomb (../kspace.cpp:321)
  G vector (1/distance) = 0.310407
  grid = 24 24 24
  stencil order = 5
  estimated absolute RMS force accuracy = 0.00365829
  estimated relative force accuracy = 1.10168e-05
  using double precision FFTs
  3d grid and FFT values/proc = 5415 1152
Setting up Verlet run ...
  Unit style    : real
  Current step  : 500000
  Time step     : 1
Per MPI rank memory allocation (min/avg/max) = 14.31 | 14.31 | 14.32 Mbytes
Step Density Temp Press TotEng 
  500000    1.1530117    305.03504    28.061763   -8371.9986 
  600000    1.1530117    313.60944   -755.15962   -8393.0192 
  700000    1.1530117    294.61643   -524.16198   -8423.1882 
  750000    1.1530117    314.37291    85.905881   -8358.3575 
Loop time of 1243.21 on 12 procs for 250000 steps with 1572 atoms

Performance: 17.374 ns/day, 1.381 hours/ns, 201.092 timesteps/s
93.5% CPU use with 12 MPI tasks x no OpenMP threads

MPI task timing breakdown:
Section |  min time  |  avg time  |  max time  |%varavg| %total
---------------------------------------------------------------
Pair    | 697.36     | 757.75     | 807.17     | 136.4 | 60.95
Bond    | 3.3198     | 3.3867     | 3.4331     |   2.1 |  0.27
Kspace  | 298.92     | 348.43     | 408.83     | 201.6 | 28.03
Neigh   | 20.477     | 20.495     | 20.517     |   0.2 |  1.65
Comm    | 36.296     | 36.661     | 37.094     |   3.2 |  2.95
Output  | 0.067506   | 0.068142   | 0.068768   |   0.1 |  0.01
Modify  | 71.438     | 71.559     | 71.712     |   1.1 |  5.76
Other   |            | 4.868      |            |       |  0.39

Nlocal:    131 ave 142 max 121 min
Histogram: 2 1 0 3 0 3 0 0 0 3
Nghost:    4210.25 ave 4296 max 4112 min
Histogram: 1 0 2 1 1 1 2 2 1 1
Neighs:    47652.7 ave 52780 max 43044 min
Histogram: 1 1 2 2 2 0 1 0 2 1

Total # of neighbors = 571832
Ave neighs/atom = 363.761
Ave special neighs/atom = 1.9084
Neighbor list builds = 10096
Dangerous builds = 0
PPPM initialization ...
  extracting TIP4P info from pair style
  using 12-bit tables for long-range coulomb (../kspace.cpp:321)
  G vector (1/distance) = 0.310407
  grid = 24 24 24
  stencil order = 5
  estimated absolute RMS force accuracy = 0.00365829
  estimated relative force accuracy = 1.10168e-05
  using double precision FFTs
  3d grid and FFT values/proc = 5415 1152
Setting up Verlet run ...
  Unit style    : real
  Current step  : 750000
  Time step     : 1
Per MPI rank memory allocation (min/avg/max) = 14.31 | 14.31 | 14.32 Mbytes
Step Density Temp Press TotEng 
  750000    1.1530117    314.37291    86.317327   -8358.3575 
  800000    1.1530117    297.41255   -479.15165   -8349.2598 
  900000    1.1530117      303.838     86.47705   -8345.4791 
 1000000    1.1530117    302.51749    155.77568   -8342.7269 
Loop time of 1238.77 on 12 procs for 250000 steps with 1572 atoms

Performance: 17.437 ns/day, 1.376 hours/ns, 201.813 timesteps/s
93.8% CPU use with 12 MPI tasks x no OpenMP threads

MPI task timing breakdown:
Section |  min time  |  avg time  |  max time  |%varavg| %total
---------------------------------------------------------------
Pair    | 721.04     | 759.13     | 803.4      | 105.7 | 61.28
Bond    | 3.3253     | 3.3973     | 3.4535     |   2.4 |  0.27
Kspace  | 298.23     | 342.68     | 380.7      | 157.8 | 27.66
Neigh   | 20.343     | 20.364     | 20.384     |   0.2 |  1.64
Comm    | 36.103     | 36.544     | 36.975     |   3.7 |  2.95
Output  | 0.10088    | 0.10126    | 0.10185    |   0.1 |  0.01
Modify  | 71.521     | 71.693     | 71.894     |   1.4 |  5.79
Other   |            | 4.865      |            |       |  0.39

Nlocal:    131 ave 141 max 120 min
Histogram: 1 2 1 0 1 1 2 2 0 2
Nghost:    4197.08 ave 4263 max 4143 min
Histogram: 1 2 2 2 0 0 2 1 1 1
Neighs:    47717.1 ave 54255 max 43284 min
Histogram: 2 1 1 3 0 3 0 0 1 1

Total # of neighbors = 572605
Ave neighs/atom = 364.253
Ave special neighs/atom = 1.9084
Neighbor list builds = 10084
Dangerous builds = 0
PPPM initialization ...
  extracting TIP4P info from pair style
  using 12-bit tables for long-range coulomb (../kspace.cpp:321)
  G vector (1/distance) = 0.310407
  grid = 24 24 24
  stencil order = 5
  estimated absolute RMS force accuracy = 0.00365829
  estimated relative force accuracy = 1.10168e-05
  using double precision FFTs
  3d grid and FFT values/proc = 5415 1152
Setting up Verlet run ...
  Unit style    : real
  Current step  : 1000000
  Time step     : 1
Per MPI rank memory allocation (min/avg/max) = 14.31 | 14.31 | 14.32 Mbytes
Step Density Temp Press TotEng 
 1000000    1.1530117    302.51749    155.97306   -8342.7269 
 1100000    1.1530117    306.87911    477.69915   -8437.9899 
 1200000    1.1530117    297.71938    212.82089   -8472.7524 
 1250000    1.1530117    282.37858    173.68365   -8431.2828 
Loop time of 1236.69 on 12 procs for 250000 steps with 1572 atoms

Performance: 17.466 ns/day, 1.374 hours/ns, 202.152 timesteps/s
93.7% CPU use with 12 MPI tasks x no OpenMP threads

MPI task timing breakdown:
Section |  min time  |  avg time  |  max time  |%varavg| %total
---------------------------------------------------------------
Pair    | 705.68     | 756.67     | 799.69     | 112.6 | 61.19
Bond    | 3.3362     | 3.4027     | 3.4585     |   2.3 |  0.28
Kspace  | 299.57     | 342.81     | 394.12     | 167.9 | 27.72
Neigh   | 20.409     | 20.428     | 20.45      |   0.3 |  1.65
Comm    | 36.29      | 36.693     | 37.161     |   3.6 |  2.97
Output  | 0.067408   | 0.067693   | 0.06827    |   0.1 |  0.01
Modify  | 71.609     | 71.746     | 71.929     |   1.2 |  5.80
Other   |            | 4.873      |            |       |  0.39

Nlocal:    131 ave 151 max 119 min
Histogram: 2 2 0 1 4 2 0 0 0 1
Nghost:    4194.08 ave 4258 max 4134 min
Histogram: 1 1 3 1 1 1 0 1 1 2
Neighs:    47696.5 ave 56502 max 41322 min
Histogram: 1 1 2 2 1 3 1 0 0 1

Total # of neighbors = 572358
Ave neighs/atom = 364.095
Ave special neighs/atom = 1.9084
Neighbor list builds = 10079
Dangerous builds = 0
PPPM initialization ...
  extracting TIP4P info from pair style
  using 12-bit tables for long-range coulomb (../kspace.cpp:321)
  G vector (1/distance) = 0.310407
  grid = 24 24 24
  stencil order = 5
  estimated absolute RMS force accuracy = 0.00365829
  estimated relative force accuracy = 1.10168e-05
  using double precision FFTs
  3d grid and FFT values/proc = 5415 1152
Setting up Verlet run ...
  Unit style    : real
  Current step  : 1250000
  Time step     : 1
Per MPI rank memory allocation (min/avg/max) = 14.31 | 14.31 | 14.32 Mbytes
Step Density Temp Press TotEng 
 1250000    1.1530117    282.37858    173.50501   -8431.2828 
 1300000    1.1530117    280.27867   -313.40499   -8548.3244 
 1400000    1.1530117    308.49077    243.84011   -8432.5139 
 1500000    1.1530117    306.92181   -228.77377   -8348.8627 
Loop time of 1237.48 on 12 procs for 250000 steps with 1572 atoms

Performance: 17.455 ns/day, 1.375 hours/ns, 202.023 timesteps/s
93.8% CPU use with 12 MPI tasks x no OpenMP threads

MPI task timing breakdown:
Section |  min time  |  avg time  |  max time  |%varavg| %total
---------------------------------------------------------------
Pair    | 713.82     | 758.45     | 797.77     |  96.8 | 61.29
Bond    | 3.3179     | 3.4004     | 3.4716     |   2.3 |  0.27
Kspace  | 302.71     | 342.15     | 386.95     | 144.6 | 27.65
Neigh   | 20.301     | 20.321     | 20.345     |   0.3 |  1.64
Comm    | 36.251     | 36.589     | 37.074     |   3.5 |  2.96
Output  | 0.10105    | 0.10138    | 0.10194    |   0.1 |  0.01
Modify  | 71.467     | 71.61      | 71.791     |   1.2 |  5.79
Other   |            | 4.849      |            |       |  0.39

Nlocal:    131 ave 143 max 124 min
Histogram: 2 3 3 0 0 0 1 1 1 1
Nghost:    4209 ave 4264 max 4143 min
Histogram: 1 1 0 2 2 1 1 1 1 2
Neighs:    47705.8 ave 54894 max 43160 min
Histogram: 2 1 2 2 2 1 0 0 1 1

Total # of neighbors = 572470
Ave neighs/atom = 364.167
Ave special neighs/atom = 1.9084
Neighbor list builds = 10046
Dangerous builds = 0
PPPM initialization ...
  extracting TIP4P info from pair style
  using 12-bit tables for long-range coulomb (../kspace.cpp:321)
  G vector (1/distance) = 0.310407
  grid = 24 24 24
  stencil order = 5
  estimated absolute RMS force accuracy = 0.00365829
  estimated relative force accuracy = 1.10168e-05
  using double precision FFTs
  3d grid and FFT values/proc = 5415 1152
Setting up Verlet run ...
  Unit style    : real
  Current step  : 1500000
  Time step     : 1
Per MPI rank memory allocation (min/avg/max) = 14.31 | 14.31 | 14.32 Mbytes
Step Density Temp Press TotEng 
 1500000    1.1530117    306.92181   -228.70436   -8348.8627 
 1600000    1.1530117    295.93936     50.49226   -8382.8612 
 1700000    1.1530117     309.0555    286.57739   -8324.4975 
 1750000    1.1530117    306.29327   -288.10466   -8437.5682 
Loop time of 1242.55 on 12 procs for 250000 steps with 1572 atoms

Performance: 17.384 ns/day, 1.381 hours/ns, 201.199 timesteps/s
93.5% CPU use with 12 MPI tasks x no OpenMP threads

MPI task timing breakdown:
Section |  min time  |  avg time  |  max time  |%varavg| %total
---------------------------------------------------------------
Pair    | 695.39     | 758.26     | 799.34     | 132.7 | 61.02
Bond    | 3.2911     | 3.3869     | 3.4503     |   2.9 |  0.27
Kspace  | 306.01     | 347.14     | 410.03     | 196.5 | 27.94
Neigh   | 20.422     | 20.438     | 20.46      |   0.2 |  1.64
Comm    | 36.301     | 36.676     | 37.153     |   3.4 |  2.95
Output  | 0.0686     | 0.068883   | 0.069401   |   0.1 |  0.01
Modify  | 71.596     | 71.71      | 71.865     |   1.0 |  5.77
Other   |            | 4.873      |            |       |  0.39

Nlocal:    131 ave 139 max 123 min
Histogram: 2 1 1 1 1 1 1 1 1 2
Nghost:    4221.42 ave 4255 max 4182 min
Histogram: 1 1 0 2 0 2 3 1 1 1
Neighs:    47689.1 ave 54148 max 42888 min
Histogram: 2 2 1 1 1 2 1 0 1 1

Total # of neighbors = 572269
Ave neighs/atom = 364.039
Ave special neighs/atom = 1.9084
Neighbor list builds = 10048
Dangerous builds = 0
PPPM initialization ...
  extracting TIP4P info from pair style
  using 12-bit tables for long-range coulomb (../kspace.cpp:321)
  G vector (1/distance) = 0.310407
  grid = 24 24 24
  stencil order = 5
  estimated absolute RMS force accuracy = 0.00365829
  estimated relative force accuracy = 1.10168e-05
  using double precision FFTs
  3d grid and FFT values/proc = 5415 1152
Setting up Verlet run ...
  Unit style    : real
  Current step  : 1750000
  Time step     : 1
Per MPI rank memory allocation (min/avg/max) = 14.31 | 14.31 | 14.32 Mbytes
Step Density Temp Press TotEng 
 1750000    1.1530117    306.29327   -287.82073   -8437.5682 
 1800000    1.1530117    299.21092   -474.94865   -8444.6741 
 1900000    1.1530117    305.00391   -27.714577   -8376.3771 
 2000000    1.1530117    300.36115   -403.04324   -8387.3313 
Loop time of 1245.66 on 12 procs for 250000 steps with 1572 atoms

Performance: 17.340 ns/day, 1.384 hours/ns, 200.698 timesteps/s
93.5% CPU use with 12 MPI tasks x no OpenMP threads

MPI task timing breakdown:
Section |  min time  |  avg time  |  max time  |%varavg| %total
---------------------------------------------------------------
Pair    | 691.8      | 757.72     | 799.35     | 136.5 | 60.83
Bond    | 3.2939     | 3.3757     | 3.4339     |   2.2 |  0.27
Kspace  | 309.05     | 350.89     | 416.98     | 201.0 | 28.17
Neigh   | 20.454     | 20.475     | 20.494     |   0.3 |  1.64
Comm    | 36.261     | 36.67      | 37.077     |   3.4 |  2.94
Output  | 0.10093    | 0.10126    | 0.10163    |   0.1 |  0.01
Modify  | 71.412     | 71.553     | 71.713     |   1.0 |  5.74
Other   |            | 4.868      |            |       |  0.39

Nlocal:    131 ave 151 max 115 min
Histogram: 1 1 1 2 3 2 0 1 0 1
Nghost:    4209.83 ave 4281 max 4118 min
Histogram: 2 0 0 2 1 2 0 2 0 3
Neighs:    47711.2 ave 58585 max 39794 min
Histogram: 2 0 2 3 1 1 2 0 0 1

Total # of neighbors = 572535
Ave neighs/atom = 364.208
Ave special neighs/atom = 1.9084
Neighbor list builds = 10058
Dangerous builds = 0
PPPM initialization ...
  extracting TIP4P info from pair style
  using 12-bit tables for long-range coulomb (../kspace.cpp:321)
  G vector (1/distance) = 0.310407
  grid = 24 24 24
  stencil order = 5
  estimated absolute RMS force accuracy = 0.00365829
  estimated relative force accuracy = 1.10168e-05
  using double precision FFTs
  3d grid and FFT values/proc = 5415 1152
Setting up Verlet run ...
  Unit style    : real
  Current step  : 2000000
  Time step     : 1
Per MPI rank memory allocation (min/avg/max) = 14.31 | 14.31 | 14.32 Mbytes
Step Density Temp Press TotEng 
 2000000    1.1530117    300.36115   -402.90634   -8387.3313 
 2100000    1.1530117    304.50494   -859.51851   -8343.3296 
 2200000    1.1530117    307.67741   -118.84279   -8369.9881 
 2300000    1.1530117    292.81739   -980.69041   -8406.5757 
 2400000    1.1530117    291.84758   -533.82858   -8413.9208 
 2500000    1.1530117    292.96351    237.84272   -8393.8089 
 2600000    1.1530117    287.85218    668.70021   -8427.5569 
 2700000    1.1530117    293.12827    86.342131   -8399.0779 
 2800000    1.1530117    298.16729    429.24868   -8349.3731 
 2900000    1.1530117    295.86059    29.734365   -8384.4968 
 3000000    1.1530117     291.8347    388.36029   -8462.0999 
Loop time of 4972.95 on 12 procs for 1000000 steps with 1572 atoms

Performance: 17.374 ns/day, 1.381 hours/ns, 201.088 timesteps/s
93.5% CPU use with 12 MPI tasks x no OpenMP threads

MPI task timing breakdown:
Section |  min time  |  avg time  |  max time  |%varavg| %total
---------------------------------------------------------------
Pair    | 2797.5     | 3034       | 3223.7     | 262.5 | 61.01
Bond    | 13.249     | 13.566     | 13.744     |   4.2 |  0.27
Kspace  | 1200.4     | 1390.5     | 1627.1     | 388.4 | 27.96
Neigh   | 81.716     | 81.811     | 81.892     |   0.6 |  1.65
Comm    | 145.02     | 146.5      | 148.17     |   6.7 |  2.95
Output  | 0.33606    | 0.33694    | 0.33909    |   0.1 |  0.01
Modify  | 286.32     | 286.76     | 287.34     |   2.1 |  5.77
Other   |            | 19.44      |            |       |  0.39

Nlocal:    131 ave 140 max 120 min
Histogram: 2 0 0 1 2 1 0 4 0 2
Nghost:    4201.67 ave 4323 max 4116 min
Histogram: 1 2 1 2 2 2 0 1 0 1
Neighs:    47749.1 ave 52455 max 42878 min
Histogram: 1 1 2 0 2 2 1 0 1 2

Total # of neighbors = 572989
Ave neighs/atom = 364.497
Ave special neighs/atom = 1.9084
Neighbor list builds = 40207
Dangerous builds = 0
PPPM initialization ...
  extracting TIP4P info from pair style
  using 12-bit tables for long-range coulomb (../kspace.cpp:321)
  G vector (1/distance) = 0.310407
  grid = 24 24 24
  stencil order = 5
  estimated absolute RMS force accuracy = 0.00365829
  estimated relative force accuracy = 1.10168e-05
  using double precision FFTs
  3d grid and FFT values/proc = 5415 1152
Setting up Verlet run ...
  Unit style    : real
  Current step  : 3000000
  Time step     : 1
Per MPI rank memory allocation (min/avg/max) = 14.31 | 14.31 | 14.32 Mbytes
Step Density Temp Press TotEng 
 3000000    1.1530117     291.8347    388.47391   -8462.0999 
 3100000    1.1530117    294.06306    443.26716   -8497.9945 
 3200000    1.1530117    284.34627   -103.91675     -8469.52 
 3300000    1.1530117    306.48698   -1271.8497   -8363.0561 
 3400000    1.1530117    292.50523   -6.0398538    -8463.381 
 3500000    1.1530117    292.34287   -60.991669   -8407.3148 
 3600000    1.1530117    295.71494    127.73405   -8426.2925 
 3700000    1.1530117    297.66147   -676.79105   -8453.0525 
 3800000    1.1530117    309.17937   -42.910021   -8367.0439 
 3900000    1.1530117    299.07885    352.98516   -8385.1096 
 4000000    1.1530117    294.43706    443.40513   -8476.4426 
Loop time of 4984.92 on 12 procs for 1000000 steps with 1572 atoms

Performance: 17.332 ns/day, 1.385 hours/ns, 200.605 timesteps/s
93.5% CPU use with 12 MPI tasks x no OpenMP threads

MPI task timing breakdown:
Section |  min time  |  avg time  |  max time  |%varavg| %total
---------------------------------------------------------------
Pair    | 2764.6     | 3036.4     | 3207.5     | 259.0 | 60.91
Bond    | 13.244     | 13.503     | 13.763     |   3.9 |  0.27
Kspace  | 1228.9     | 1400.2     | 1672       | 382.0 | 28.09
Neigh   | 81.729     | 81.808     | 81.883     |   0.5 |  1.64
Comm    | 144.86     | 146.39     | 148.23     |   7.0 |  2.94
Output  | 0.33651    | 0.3372     | 0.33912    |   0.1 |  0.01
Modify  | 286.25     | 286.72     | 287.34     |   2.1 |  5.75
Other   |            | 19.47      |            |       |  0.39

Nlocal:    131 ave 143 max 116 min
Histogram: 1 0 4 0 0 1 1 1 3 1
Nghost:    4194 ave 4300 max 4122 min
Histogram: 1 3 2 1 1 1 1 1 0 1
Neighs:    47719.8 ave 52380 max 42661 min
Histogram: 3 0 0 1 2 0 2 1 1 2

Total # of neighbors = 572637
Ave neighs/atom = 364.273
Ave special neighs/atom = 1.9084
Neighbor list builds = 40247
Dangerous builds = 0
PPPM initialization ...
  extracting TIP4P info from pair style
  using 12-bit tables for long-range coulomb (../kspace.cpp:321)
  G vector (1/distance) = 0.310407
  grid = 24 24 24
  stencil order = 5
  estimated absolute RMS force accuracy = 0.00365829
  estimated relative force accuracy = 1.10168e-05
  using double precision FFTs
  3d grid and FFT values/proc = 5415 1152
Setting up Verlet run ...
  Unit style    : real
  Current step  : 4000000
  Time step     : 1
Per MPI rank memory allocation (min/avg/max) = 14.31 | 14.31 | 14.32 Mbytes
Step Density Temp Press TotEng 
 4000000    1.1530117    294.43706    443.32739   -8476.4426 
 4100000    1.1530117    305.29914    588.38664   -8422.3623 
 4200000    1.1530117     306.6834    -473.8963   -8345.3937 
 4300000    1.1530117    298.33989   -1196.3154   -8355.3258 
 4400000    1.1530117    295.89618   -133.07671   -8334.7625 
 4500000    1.1530117    303.94544    468.63557   -8383.3371 
 4600000    1.1530117      309.382   -188.47147   -8332.3518 
 4700000    1.1530117    293.56671   -397.49339   -8420.2042 
 4800000    1.1530117    300.98659    14.778332   -8371.4756 
 4900000    1.1530117    297.93546    1100.3327   -8381.5937 
 5000000    1.1530117    297.23323   -122.36013   -8410.2582 
Loop time of 4968.67 on 12 procs for 1000000 steps with 1572 atoms

Performance: 17.389 ns/day, 1.380 hours/ns, 201.261 timesteps/s
93.5% CPU use with 12 MPI tasks x no OpenMP threads

MPI task timing breakdown:
Section |  min time  |  avg time  |  max time  |%varavg| %total
---------------------------------------------------------------
Pair    | 2805.3     | 3029.8     | 3202.2     | 252.9 | 60.98
Bond    | 13.286     | 13.562     | 13.877     |   5.0 |  0.27
Kspace  | 1217.6     | 1390.1     | 1615.8     | 374.2 | 27.98
Neigh   | 81.861     | 81.914     | 82.018     |   0.4 |  1.65
Comm    | 145.03     | 146.5      | 148.26     |   6.7 |  2.95
Output  | 0.33785    | 0.3384     | 0.33914    |   0.1 |  0.01
Modify  | 286.49     | 287.04     | 287.74     |   2.2 |  5.78
Other   |            | 19.45      |            |       |  0.39

Nlocal:    131 ave 148 max 118 min
Histogram: 1 1 2 1 3 1 1 1 0 1
Nghost:    4221.75 ave 4268 max 4172 min
Histogram: 3 0 1 1 1 0 1 1 1 3
Neighs:    47724.3 ave 57270 max 41746 min
Histogram: 2 0 4 3 0 1 0 0 1 1

Total # of neighbors = 572692
Ave neighs/atom = 364.308
Ave special neighs/atom = 1.9084
Neighbor list builds = 40292
Dangerous builds = 0
PPPM initialization ...
  extracting TIP4P info from pair style
  using 12-bit tables for long-range coulomb (../kspace.cpp:321)
  G vector (1/distance) = 0.310407
  grid = 24 24 24
  stencil order = 5
  estimated absolute RMS force accuracy = 0.00365829
  estimated relative force accuracy = 1.10168e-05
  using double precision FFTs
  3d grid and FFT values/proc = 5415 1152
Setting up Verlet run ...
  Unit style    : real
  Current step  : 5000000
  Time step     : 1
Per MPI rank memory allocation (min/avg/max) = 14.31 | 14.31 | 14.32 Mbytes
Step Density Temp Press TotEng 
 5000000    1.1530117    297.23323   -122.47913   -8410.2582 
 5100000    1.1530117    293.57301    383.39941   -8434.2567 
 5200000    1.1530117    289.29945    109.88257   -8402.9557 
 5300000    1.1530117    298.79961    -197.1176   -8433.3392 
 5400000    1.1530117     301.9032   -452.93138   -8417.9438 
 5500000    1.1530117    298.77164    164.62466   -8491.3841 
 5600000    1.1530117    299.59616   -48.159355   -8424.6304 
 5700000    1.1530117    300.39456    584.95041   -8325.8198 
 5800000    1.1530117    288.53708   -389.44468   -8483.5005 
 5900000    1.1530117    299.41612    -161.9539   -8387.5316 
 6000000    1.1530117     310.6736    68.230749   -8407.0281 
Loop time of 5011.43 on 12 procs for 1000000 steps with 1572 atoms

Performance: 17.241 ns/day, 1.392 hours/ns, 199.544 timesteps/s
93.2% CPU use with 12 MPI tasks x no OpenMP threads

MPI task timing breakdown:
Section |  min time  |  avg time  |  max time  |%varavg| %total
---------------------------------------------------------------
Pair    | 2788.3     | 3038.3     | 3247.3     | 289.5 | 60.63
Bond    | 13.224     | 13.5       | 13.732     |   4.2 |  0.27
Kspace  | 1214.9     | 1424.4     | 1674.6     | 423.6 | 28.42
Neigh   | 82.109     | 82.185     | 82.259     |   0.5 |  1.64
Comm    | 144.94     | 146.44     | 148.02     |   6.5 |  2.92
Output  | 0.33664    | 0.33801    | 0.33906    |   0.1 |  0.01
Modify  | 286.34     | 286.85     | 287.4      |   1.9 |  5.72
Other   |            | 19.45      |            |       |  0.39

Nlocal:    131 ave 140 max 116 min
Histogram: 1 0 0 1 1 4 0 1 1 3
Nghost:    4194.25 ave 4249 max 4127 min
Histogram: 2 0 0 2 0 2 3 0 1 2
Neighs:    47713 ave 54582 max 43806 min
Histogram: 3 1 1 3 0 3 0 0 0 1

Total # of neighbors = 572556
Ave neighs/atom = 364.221
Ave special neighs/atom = 1.9084
Neighbor list builds = 40294
Dangerous builds = 0
PPPM initialization ...
  extracting TIP4P info from pair style
  using 12-bit tables for long-range coulomb (../kspace.cpp:321)
  G vector (1/distance) = 0.310407
  grid = 24 24 24
  stencil order = 5
  estimated absolute RMS force accuracy = 0.00365829
  estimated relative force accuracy = 1.10168e-05
  using double precision FFTs
  3d grid and FFT values/proc = 5415 1152
Setting up Verlet run ...
  Unit style    : real
  Current step  : 6000000
  Time step     : 1
Per MPI rank memory allocation (min/avg/max) = 14.31 | 14.31 | 14.32 Mbytes
Step Density Temp Press TotEng 
 6000000    1.1530117     310.6736    68.365747   -8407.0281 
 6100000    1.1530117    293.14874    451.32216   -8401.9535 
 6200000    1.1530117    297.61152    -487.9999   -8467.0633 
 6300000    1.1530117    289.76071    196.25824    -8372.302 
 6400000    1.1530117    303.03359   -622.39391    -8416.354 
 6500000    1.1530117    310.19666   -7.0870834   -8385.8326 
 6600000    1.1530117    290.56719   -510.75952   -8369.4994 
 6700000    1.1530117    292.78742     637.6992   -8458.0659 
 6800000    1.1530117    291.78842     749.2782   -8398.2531 
 6900000    1.1530117    289.54003    812.50484   -8436.2015 
 7000000    1.1530117    302.02453    110.91316   -8391.0186 
Loop time of 4976.11 on 12 procs for 1000000 steps with 1572 atoms

Performance: 17.363 ns/day, 1.382 hours/ns, 200.960 timesteps/s
93.4% CPU use with 12 MPI tasks x no OpenMP threads

MPI task timing breakdown:
Section |  min time  |  avg time  |  max time  |%varavg| %total
---------------------------------------------------------------
Pair    | 2806.8     | 3027.1     | 3236.2     | 256.0 | 60.83
Bond    | 13.256     | 13.579     | 13.806     |   4.6 |  0.27
Kspace  | 1190.4     | 1400.3     | 1621.4     | 377.3 | 28.14
Neigh   | 81.757     | 81.836     | 81.922     |   0.5 |  1.64
Comm    | 145.08     | 146.71     | 148.34     |   6.8 |  2.95
Output  | 0.33658    | 0.33713    | 0.33765    |   0.1 |  0.01
Modify  | 286.13     | 286.76     | 287.35     |   2.2 |  5.76
Other   |            | 19.46      |            |       |  0.39

Nlocal:    131 ave 142 max 121 min
Histogram: 1 1 3 1 1 1 0 1 1 2
Nghost:    4214.92 ave 4269 max 4172 min
Histogram: 3 0 1 3 0 0 2 0 2 1
Neighs:    47672.5 ave 53018 max 41587 min
Histogram: 1 0 1 1 1 4 2 0 1 1

Total # of neighbors = 572070
Ave neighs/atom = 363.912
Ave special neighs/atom = 1.9084
Neighbor list builds = 40260
Dangerous builds = 0
PPPM initialization ...
  extracting TIP4P info from pair style
  using 12-bit tables for long-range coulomb (../kspace.cpp:321)
  G vector (1/distance) = 0.310407
  grid = 24 24 24
  stencil order = 5
  estimated absolute RMS force accuracy = 0.00365829
  estimated relative force accuracy = 1.10168e-05
  using double precision FFTs
  3d grid and FFT values/proc = 5415 1152
Setting up Verlet run ...
  Unit style    : real
  Current step  : 7000000
  Time step     : 1
Per MPI rank memory allocation (min/avg/max) = 14.31 | 14.31 | 14.32 Mbytes
Step Density Temp Press TotEng 
 7000000    1.1530117    302.02453    110.92292   -8391.0186 
 7100000    1.1530117    294.52334    18.674408   -8389.3553 
 7200000    1.1530117    299.50392    448.46116    -8456.716 
 7300000    1.1530117     306.7867   -755.27595   -8388.0849 
 7400000    1.1530117    288.11309   -238.31515    -8441.581 
 7500000    1.1530117    305.96298   -151.16432   -8364.4308 
 7600000    1.1530117    294.17149    76.892397   -8413.6063 
 7700000    1.1530117    305.69327   -819.50027   -8394.5146 
 7800000    1.1530117    299.19322    407.95691   -8377.6574 
 7900000    1.1530117    309.85278   -608.72231   -8341.4795 
 8000000    1.1530117    294.47168    21.068417   -8451.8151 
Loop time of 5014.52 on 12 procs for 1000000 steps with 1572 atoms

Performance: 17.230 ns/day, 1.393 hours/ns, 199.421 timesteps/s
93.2% CPU use with 12 MPI tasks x no OpenMP threads

MPI task timing breakdown:
Section |  min time  |  avg time  |  max time  |%varavg| %total
---------------------------------------------------------------
Pair    | 2832.4     | 3041.2     | 3285.1     | 274.1 | 60.65
Bond    | 13.248     | 13.52      | 13.716     |   4.0 |  0.27
Kspace  | 1180.7     | 1425       | 1633.6     | 401.2 | 28.42
Neigh   | 81.884     | 81.965     | 82.039     |   0.5 |  1.63
Comm    | 145.07     | 146.44     | 148.18     |   6.8 |  2.92
Output  | 0.33714    | 0.33789    | 0.33918    |   0.1 |  0.01
Modify  | 286.09     | 286.57     | 287.17     |   2.1 |  5.71
Other   |            | 19.47      |            |       |  0.39

Nlocal:    131 ave 138 max 123 min
Histogram: 1 0 3 0 2 0 1 2 2 1
Nghost:    4229.08 ave 4288 max 4146 min
Histogram: 1 0 0 3 1 1 0 3 1 2
Neighs:    47706 ave 52095 max 43083 min
Histogram: 1 2 0 2 1 1 0 3 1 1

Total # of neighbors = 572472
Ave neighs/atom = 364.168
Ave special neighs/atom = 1.9084
Neighbor list builds = 40300
Dangerous builds = 0
PPPM initialization ...
  extracting TIP4P info from pair style
  using 12-bit tables for long-range coulomb (../kspace.cpp:321)
  G vector (1/distance) = 0.310407
  grid = 24 24 24
  stencil order = 5
  estimated absolute RMS force accuracy = 0.00365829
  estimated relative force accuracy = 1.10168e-05
  using double precision FFTs
  3d grid and FFT values/proc = 5415 1152
Setting up Verlet run ...
  Unit style    : real
  Current step  : 8000000
  Time step     : 1
Per MPI rank memory allocation (min/avg/max) = 14.31 | 14.31 | 14.32 Mbytes
Step Density Temp Press TotEng 
 8000000    1.1530117    294.47168    21.177114   -8451.8151 
 8100000    1.1530117    308.43218   -62.154545   -8340.0104 
 8200000    1.1530117    307.03338   -854.32758   -8418.8675 
 8300000    1.1530117    293.28556   -365.23368   -8434.5795 
 8400000    1.1530117    300.88182      -312.17   -8368.6486 
 8500000    1.1530117    299.83267    915.04453   -8421.0628 
 8600000    1.1530117     297.8993   -385.40343   -8385.6526 
 8700000    1.1530117    306.77015   -535.89388   -8439.8562 
 8800000    1.1530117    289.52368   -664.34885   -8536.0896 
 8900000    1.1530117    284.24574   -101.72676    -8493.628 
 9000000    1.1530117     298.9513    145.13172   -8458.8861 
Loop time of 4982.12 on 12 procs for 1000000 steps with 1572 atoms

Performance: 17.342 ns/day, 1.384 hours/ns, 200.718 timesteps/s
93.5% CPU use with 12 MPI tasks x no OpenMP threads

MPI task timing breakdown:
Section |  min time  |  avg time  |  max time  |%varavg| %total
---------------------------------------------------------------
Pair    | 2863.2     | 3039.2     | 3257.3     | 233.9 | 61.00
Bond    | 13.372     | 13.595     | 13.773     |   3.8 |  0.27
Kspace  | 1176       | 1394.6     | 1570.6     | 345.9 | 27.99
Neigh   | 81.679     | 81.776     | 81.854     |   0.5 |  1.64
Comm    | 145.12     | 146.44     | 148.1      |   6.7 |  2.94
Output  | 0.33738    | 0.33814    | 0.33904    |   0.1 |  0.01
Modify  | 286.12     | 286.8      | 287.49     |   2.5 |  5.76
Other   |            | 19.42      |            |       |  0.39

Nlocal:    131 ave 144 max 121 min
Histogram: 1 2 1 3 1 1 0 1 0 2
Nghost:    4235.08 ave 4306 max 4169 min
Histogram: 2 1 1 0 1 2 3 1 0 1
Neighs:    47709.7 ave 51365 max 42535 min
Histogram: 1 1 1 1 0 1 1 4 0 2

Total # of neighbors = 572516
Ave neighs/atom = 364.196
Ave special neighs/atom = 1.9084
Neighbor list builds = 40273
Dangerous builds = 0
PPPM initialization ...
  extracting TIP4P info from pair style
  using 12-bit tables for long-range coulomb (../kspace.cpp:321)
  G vector (1/distance) = 0.310407
  grid = 24 24 24
  stencil order = 5
  estimated absolute RMS force accuracy = 0.00365829
  estimated relative force accuracy = 1.10168e-05
  using double precision FFTs
  3d grid and FFT values/proc = 5415 1152
Setting up Verlet run ...
  Unit style    : real
  Current step  : 9000000
  Time step     : 1
Per MPI rank memory allocation (min/avg/max) = 14.31 | 14.31 | 14.32 Mbytes
Step Density Temp Press TotEng 
 9000000    1.1530117     298.9513    145.14463   -8458.8861 
 9100000    1.1530117    307.07618    1641.7945   -8281.2569 
 9200000    1.1530117    297.56742   -1266.2652   -8430.4972 
 9300000    1.1530117    306.20131   -41.880907   -8371.3526 
 9400000    1.1530117    291.65601    415.06819   -8417.7125 
 9500000    1.1530117    305.13566    293.01021   -8438.0944 
 9600000    1.1530117    283.05974   -711.24495   -8410.8494 
 9700000    1.1530117    306.60645    -590.9286   -8400.8987 
 9800000    1.1530117    315.81983    508.22482   -8354.9279 
 9900000    1.1530117    284.26509   -334.34461   -8424.2942 
10000000    1.1530117    296.19277   -96.103543   -8436.6816 
Loop time of 4979.57 on 12 procs for 1000000 steps with 1572 atoms

Performance: 17.351 ns/day, 1.383 hours/ns, 200.821 timesteps/s
93.4% CPU use with 12 MPI tasks x no OpenMP threads

MPI task timing breakdown:
Section |  min time  |  avg time  |  max time  |%varavg| %total
---------------------------------------------------------------
Pair    | 2806.9     | 3026.3     | 3241.5     | 256.6 | 60.77
Bond    | 13.266     | 13.531     | 13.686     |   4.1 |  0.27
Kspace  | 1189.1     | 1405       | 1624.9     | 377.4 | 28.22
Neigh   | 81.74      | 81.83      | 81.917     |   0.6 |  1.64
Comm    | 145.11     | 146.58     | 148.41     |   6.9 |  2.94
Output  | 0.33826    | 0.33933    | 0.34096    |   0.1 |  0.01
Modify  | 286.04     | 286.51     | 287.05     |   2.1 |  5.75
Other   |            | 19.48      |            |       |  0.39

Nlocal:    131 ave 137 max 124 min
Histogram: 1 0 2 1 1 0 4 1 0 2
Nghost:    4209.17 ave 4255 max 4171 min
Histogram: 1 1 3 1 2 1 1 0 0 2
Neighs:    47714.7 ave 52238 max 44004 min
Histogram: 2 0 2 3 1 0 1 0 1 2

Total # of neighbors = 572576
Ave neighs/atom = 364.234
Ave special neighs/atom = 1.9084
Neighbor list builds = 40274
Dangerous builds = 0
PPPM initialization ...
  extracting TIP4P info from pair style
  using 12-bit tables for long-range coulomb (../kspace.cpp:321)
  G vector (1/distance) = 0.310407
  grid = 24 24 24
  stencil order = 5
  estimated absolute RMS force accuracy = 0.00365829
  estimated relative force accuracy = 1.10168e-05
  using double precision FFTs
  3d grid and FFT values/proc = 5415 1152
Setting up Verlet run ...
  Unit style    : real
  Current step  : 10000000
  Time step     : 1
Per MPI rank memory allocation (min/avg/max) = 14.31 | 14.31 | 14.32 Mbytes
Step Density Temp Press TotEng 
10000000    1.1530117    296.19277    -96.24683   -8436.6816 
10100000    1.1530117      292.259   -358.16451   -8384.2271 
10200000    1.1530117    288.70736   -297.22691   -8437.1754 
10300000    1.1530117    279.32143   -445.29206    -8461.466 
10400000    1.1530117    295.35014    -601.9821    -8427.917 
10500000    1.1530117    293.93046   -521.47248   -8431.6257 
10600000    1.1530117    306.50116    44.312631   -8427.0952 
10700000    1.1530117    309.17458     -130.703   -8386.5283 
10800000    1.1530117    305.53447   -77.994157   -8387.6606 
10900000    1.1530117    305.92504    174.33657   -8400.2799 
11000000    1.1530117     302.0802     -797.903   -8320.3743 
11100000    1.1530117    296.95175    550.29691   -8431.3873 
11200000    1.1530117     308.9343   -173.50379   -8402.2317 
11300000    1.1530117    292.10854   -164.32699   -8409.1224 
11400000    1.1530117    296.31211    438.52255   -8343.5713 
11500000    1.1530117    300.84647   -378.49444   -8394.9252 
11600000    1.1530117    280.74561   -369.20451   -8425.8642 
11700000    1.1530117    298.67669   -142.88118   -8366.9682 
11800000    1.1530117    294.13536   -210.78984   -8428.1345 
11900000    1.1530117    293.34723   -468.67409   -8438.0863 
12000000    1.1530117    294.79488    957.66865   -8395.3851 
12100000    1.1530117    293.73585   -526.44714   -8330.3642 
12200000    1.1530117    298.28847    443.63964   -8413.1071 
12300000    1.1530117    306.46213   -683.42211   -8333.8889 
12400000    1.1530117     288.3524    57.148494   -8410.0802 
12500000    1.1530117    307.17017    626.87516    -8379.206 
Loop time of 12460.3 on 12 procs for 2500000 steps with 1572 atoms

Performance: 17.335 ns/day, 1.384 hours/ns, 200.637 timesteps/s
93.5% CPU use with 12 MPI tasks x no OpenMP threads

MPI task timing breakdown:
Section |  min time  |  avg time  |  max time  |%varavg| %total
---------------------------------------------------------------
Pair    | 7103       | 7601.8     | 8061.5     | 395.7 | 61.01
Bond    | 33.166     | 33.877     | 34.459     |   7.3 |  0.27
Kspace  | 3024.6     | 3485.8     | 3985.9     | 585.6 | 27.98
Neigh   | 204.76     | 204.93     | 205.13     |   0.7 |  1.64
Comm    | 362.79     | 366.41     | 370.47     |  10.2 |  2.94
Output  | 0.84281    | 0.84574    | 0.84955    |   0.2 |  0.01
Modify  | 716.68     | 718.06     | 719.77     |   3.5 |  5.76
Other   |            | 48.58      |            |       |  0.39

Nlocal:    131 ave 140 max 124 min
Histogram: 3 1 1 1 1 1 1 0 1 2
Nghost:    4215.67 ave 4294 max 4127 min
Histogram: 1 1 2 0 0 1 4 0 2 1
Neighs:    47687.9 ave 51643 max 42416 min
Histogram: 1 1 0 2 2 1 1 0 1 3

Total # of neighbors = 572255
Ave neighs/atom = 364.03
Ave special neighs/atom = 1.9084
Neighbor list builds = 100813
Dangerous builds = 0
PPPM initialization ...
  extracting TIP4P info from pair style
  using 12-bit tables for long-range coulomb (../kspace.cpp:321)
  G vector (1/distance) = 0.310407
  grid = 24 24 24
  stencil order = 5
  estimated absolute RMS force accuracy = 0.00365829
  estimated relative force accuracy = 1.10168e-05
  using double precision FFTs
  3d grid and FFT values/proc = 5415 1152
Setting up Verlet run ...
  Unit style    : real
  Current step  : 12500000
  Time step     : 1
Per MPI rank memory allocation (min/avg/max) = 14.31 | 14.31 | 14.32 Mbytes
Step Density Temp Press TotEng 
12500000    1.1530117    307.17017    626.75414    -8379.206 
12600000    1.1530117     301.6388    39.908035   -8384.0731 
12700000    1.1530117    295.51717   -493.24969   -8421.4295 
12800000    1.1530117    290.95969   -380.26752   -8433.5172 
12900000    1.1530117    297.02821   -343.36404   -8397.0571 
13000000    1.1530117    306.80945    98.250697   -8391.9886 
13100000    1.1530117    305.27626   -52.827247   -8431.8576 
13200000    1.1530117    298.81188    52.202769    -8401.939 
13300000    1.1530117    298.47718   -107.89017   -8379.4481 
13400000    1.1530117    301.55533    61.908021   -8332.0816 
13500000    1.1530117    306.51239    493.04801   -8383.6234 
13600000    1.1530117    283.33778    295.86552   -8479.8772 
13700000    1.1530117    304.90955   -55.025912   -8328.5416 
13800000    1.1530117    296.67857   -179.19566   -8359.3426 
13900000    1.1530117    299.40402   -1052.0208   -8413.1797 
14000000    1.1530117    309.88903    272.05154   -8305.6514 
14100000    1.1530117    292.98734   -441.43361   -8400.6488 
14200000    1.1530117    303.40427    877.38864   -8446.4569 
14300000    1.1530117    299.08844   -232.22744   -8348.1835 
14400000    1.1530117    296.65232    286.53409   -8391.0836 
14500000    1.1530117    298.61786    528.53636   -8406.6204 
14600000    1.1530117    297.17462   -253.99636   -8385.6932 
14700000    1.1530117     298.2582   -223.71663   -8428.2735 
14800000    1.1530117    290.41409    632.88481   -8451.2797 
14900000    1.1530117    300.26809    352.09668   -8346.3499 
15000000    1.1530117    293.14873   -1177.6141   -8434.1298 
Loop time of 12472 on 12 procs for 2500000 steps with 1572 atoms

Performance: 17.319 ns/day, 1.386 hours/ns, 200.448 timesteps/s
93.4% CPU use with 12 MPI tasks x no OpenMP threads

MPI task timing breakdown:
Section |  min time  |  avg time  |  max time  |%varavg| %total
---------------------------------------------------------------
Pair    | 7037.1     | 7581.8     | 8006.2     | 413.2 | 60.79
Bond    | 33.014     | 33.805     | 34.359     |   7.4 |  0.27
Kspace  | 3092.5     | 3519       | 4063.5     | 607.8 | 28.21
Neigh   | 204.48     | 204.66     | 204.85     |   0.7 |  1.64
Comm    | 362.89     | 366.35     | 370.91     |  10.7 |  2.94
Output  | 0.84109    | 0.84371    | 0.8474     |   0.2 |  0.01
Modify  | 715.64     | 717.02     | 718.54     |   3.4 |  5.75
Other   |            | 48.6       |            |       |  0.39

Nlocal:    131 ave 140 max 123 min
Histogram: 1 2 1 1 1 3 0 1 0 2
Nghost:    4207.33 ave 4237 max 4180 min
Histogram: 2 1 2 2 0 0 1 0 3 1
Neighs:    47684.9 ave 53267 max 42388 min
Histogram: 1 1 1 2 2 1 2 0 0 2

Total # of neighbors = 572219
Ave neighs/atom = 364.007
Ave special neighs/atom = 1.9084
Neighbor list builds = 100643
Dangerous builds = 0
PPPM initialization ...
  extracting TIP4P info from pair style
  using 12-bit tables for long-range coulomb (../kspace.cpp:321)
  G vector (1/distance) = 0.310407
  grid = 24 24 24
  stencil order = 5
  estimated absolute RMS force accuracy = 0.00365829
  estimated relative force accuracy = 1.10168e-05
  using double precision FFTs
  3d grid and FFT values/proc = 5415 1152
Setting up Verlet run ...
  Unit style    : real
  Current step  : 15000000
  Time step     : 1
Per MPI rank memory allocation (min/avg/max) = 14.31 | 14.31 | 14.32 Mbytes
Step Density Temp Press TotEng 
15000000    1.1530117    293.14873   -1177.3626   -8434.1298 
15100000    1.1530117    305.62764   -149.25593   -8401.5482 
15200000    1.1530117    304.80079    -663.1772   -8370.4664 
15300000    1.1530117    304.37887    102.82896   -8372.8758 
15400000    1.1530117    296.25987    137.05316   -8420.5414 
15500000    1.1530117    299.44694    446.32585   -8426.4163 
15600000    1.1530117    301.47261   -129.19742   -8384.9221 
15700000    1.1530117    306.00518   -1072.2199   -8397.3493 
15800000    1.1530117    297.09704   -47.623363   -8429.2388 
15900000    1.1530117    312.31094    564.31967   -8366.9256 
16000000    1.1530117    297.59369    208.44281   -8434.4503 
16100000    1.1530117    286.46025    176.11854   -8468.3948 
16200000    1.1530117    291.83342   -596.26497   -8420.1459 
16300000    1.1530117    291.55947   -103.59136   -8415.2461 
16400000    1.1530117    308.39593    -749.2351   -8353.7001 
16500000    1.1530117      301.406   -126.69251   -8404.4441 
16600000    1.1530117    295.24309   -108.28546   -8445.0502 
16700000    1.1530117    299.32233   -181.52568   -8463.7924 
16800000    1.1530117    309.23963    1278.7672   -8402.7076 
16900000    1.1530117    304.12011   -398.93646   -8405.2539 
17000000    1.1530117    299.55902    683.28523   -8412.0475 
17100000    1.1530117    298.56076    -399.3256   -8473.3953 
17200000    1.1530117    304.49604     192.1077   -8410.2729 
17300000    1.1530117    298.08971    272.50754   -8415.3331 
17400000    1.1530117    291.02216    840.89831   -8497.7489 
17500000    1.1530117    299.04201    390.98009   -8453.5025 
Loop time of 12447.8 on 12 procs for 2500000 steps with 1572 atoms

Performance: 17.353 ns/day, 1.383 hours/ns, 200.839 timesteps/s
93.5% CPU use with 12 MPI tasks x no OpenMP threads

MPI task timing breakdown:
Section |  min time  |  avg time  |  max time  |%varavg| %total
---------------------------------------------------------------
Pair    | 7110.4     | 7598.4     | 8029.1     | 387.7 | 61.04
Bond    | 33.334     | 33.972     | 34.474     |   6.5 |  0.27
Kspace  | 3045.9     | 3477.3     | 3966.4     | 574.4 | 27.94
Neigh   | 204.91     | 205.06     | 205.25     |   0.7 |  1.65
Comm    | 362.36     | 366.08     | 370.31     |  10.8 |  2.94
Output  | 0.84246    | 0.84457    | 0.84759    |   0.1 |  0.01
Modify  | 715.96     | 717.49     | 718.9      |   3.3 |  5.76
Other   |            | 48.63      |            |       |  0.39

Nlocal:    131 ave 142 max 119 min
Histogram: 2 0 0 3 1 2 0 1 2 1
Nghost:    4203.33 ave 4274 max 4148 min
Histogram: 2 2 1 0 2 2 0 0 2 1
Neighs:    47717.4 ave 54421 max 42482 min
Histogram: 1 0 2 4 2 0 1 1 0 1

Total # of neighbors = 572609
Ave neighs/atom = 364.255
Ave special neighs/atom = 1.9084
Neighbor list builds = 100777
Dangerous builds = 0
[...]
Neighs:    47734.1 ave 53427 max 39720 min
Histogram: 1 0 0 1 2 2 2 2 1 1

Total # of neighbors = 572809
Ave neighs/atom = 364.382
Ave special neighs/atom = 1.9084
Neighbor list builds = 201440
Dangerous builds = 0
PPPM initialization ...
  extracting TIP4P info from pair style
  using 12-bit tables for long-range coulomb (../kspace.cpp:321)
  G vector (1/distance) = 0.310407
  grid = 24 24 24
  stencil order = 5
  estimated absolute RMS force accuracy = 0.00365829
  estimated relative force accuracy = 1.10168e-05
  using double precision FFTs
  3d grid and FFT values/proc = 5415 1152
Setting up Verlet run ...
  Unit style    : real
  Current step  : 30000000
  Time step     : 1
Per MPI rank memory allocation (min/avg/max) = 14.31 | 14.32 | 14.32 Mbytes
Step Density Temp Press TotEng 
30000000    1.1530117    288.37518   -373.48973   -8455.0232 
30100000    1.1530117    295.42574   -855.51777   -8458.4894 
30200000    1.1530117    291.35308    297.76851   -8363.5937 
30300000    1.1530117    298.53763   -1093.3917   -8377.5515 
30400000    1.1530117    303.66357   -337.55408   -8364.1285 
30500000    1.1530117    311.86594     383.6838   -8328.8276 
30600000    1.1530117    306.10464    4.1845993   -8390.7754 
30700000    1.1530117    287.94061    635.05998   -8423.8877 
30800000    1.1530117    281.93071    654.42247    -8434.413 
30900000    1.1530117    295.79065   -50.804848   -8455.1426 
31000000    1.1530117    282.75339   -679.23221   -8490.9413 
31100000    1.1530117    305.44263   -308.33715   -8373.4951 
31200000    1.1530117    294.17738   -204.26107   -8412.6352 
31300000    1.1530117    299.81188    71.944707   -8355.3838 
31400000    1.1530117    301.66604   -138.33311   -8366.4046 
31500000    1.1530117    288.74684   -257.62606   -8447.5201 
31600000    1.1530117    286.69797   -415.82525   -8469.5079 
31700000    1.1530117    304.68475    485.92237   -8377.0674 
31800000    1.1530117    297.46111    442.34238   -8430.8195 
31900000    1.1530117     308.9354   -218.18511    -8351.452 
32000000    1.1530117    302.34576    696.92676   -8413.0802 
32100000    1.1530117    310.87232    711.20999   -8328.9856 
32200000    1.1530117    284.63218    -730.4326    -8399.004 
32300000    1.1530117    299.84196    398.22114   -8374.4849 
32400000    1.1530117    293.75852   -501.14405   -8441.5685 
32500000    1.1530117    313.77124   -81.008142   -8308.5235 
32600000    1.1530117    283.71174   -958.13242   -8445.7726 
32700000    1.1530117    288.53404    299.56835   -8452.4395 
32800000    1.1530117    301.94929   -343.81072   -8409.1892 
32900000    1.1530117    294.20837    78.850968   -8410.3302 
33000000    1.1530117    278.37268    121.60386   -8450.7746 
33100000    1.1530117    283.98287   -553.89035   -8448.7957 
33200000    1.1530117    294.19937    13.207306   -8438.4729 
33300000    1.1530117    286.73917    287.20759   -8422.3727 
33400000    1.1530117    312.42848    202.58017    -8366.746 
33500000    1.1530117    296.65656   -214.95443   -8365.0474 
33600000    1.1530117    296.46991   -5.7727958   -8395.7489 
33700000    1.1530117    294.37518    1358.2357   -8482.1458 
33800000    1.1530117    303.38475    380.61641   -8445.3235 
33900000    1.1530117    290.96654   -360.17451   -8418.2457 
34000000    1.1530117     299.0672    -129.6115   -8406.6565 
34100000    1.1530117    300.40446    428.77011   -8357.2948 
34200000    1.1530117    280.20269   -1500.5039   -8397.0634 
34300000    1.1530117      294.364   -456.04493    -8437.672 
34400000    1.1530117    299.68367    409.29655   -8428.8137 
34500000    1.1530117    304.52465    432.35114    -8422.532 
34600000    1.1530117     293.1472   -303.38448   -8433.3257 
34700000    1.1530117    293.33747   -387.59196   -8458.0325 
34800000    1.1530117    310.16821    204.73368   -8397.7594 
34900000    1.1530117    317.14211   -95.326812   -8279.3704 
35000000    1.1530117    297.46093    4.4438742   -8395.9125 
Loop time of 24901.2 on 12 procs for 5000000 steps with 1572 atoms

Performance: 17.349 ns/day, 1.383 hours/ns, 200.794 timesteps/s
93.4% CPU use with 12 MPI tasks x no OpenMP threads

MPI task timing breakdown:
Section |  min time  |  avg time  |  max time  |%varavg| %total
---------------------------------------------------------------
Pair    | 14025      | 15150      | 16129      | 559.9 | 60.84
Bond    | 66.714     | 67.867     | 68.869     |   8.3 |  0.27
Kspace  | 6024.1     | 7006       | 8131.4     | 825.3 | 28.14
Neigh   | 408.83     | 409.23     | 409.62     |   1.1 |  1.64
Comm    | 725.89     | 732.55     | 740.58     |  14.1 |  2.94
Output  | 1.688      | 1.6917     | 1.6999     |   0.2 |  0.01
Modify  | 1433.1     | 1435.7     | 1439       |   4.9 |  5.77
Other   |            | 97.6       |            |       |  0.39

Nlocal:    131 ave 149 max 117 min
Histogram: 1 1 2 2 1 3 0 1 0 1
Nghost:    4210.67 ave 4272 max 4144 min
Histogram: 1 2 0 1 0 3 2 1 1 1
Neighs:    47720.3 ave 54860 max 38723 min
Histogram: 1 0 1 1 1 3 3 0 0 2

Total # of neighbors = 572644
Ave neighs/atom = 364.277
Ave special neighs/atom = 1.9084
Neighbor list builds = 201334
Dangerous builds = 0
PPPM initialization ...
  extracting TIP4P info from pair style
  using 12-bit tables for long-range coulomb (../kspace.cpp:321)
  G vector (1/distance) = 0.310407
  grid = 24 24 24
  stencil order = 5
  estimated absolute RMS force accuracy = 0.00365829
  estimated relative force accuracy = 1.10168e-05
  using double precision FFTs
  3d grid and FFT values/proc = 5415 1152
Setting up Verlet run ...
  Unit style    : real
  Current step  : 35000000
  Time step     : 1
Per MPI rank memory allocation (min/avg/max) = 14.31 | 14.32 | 14.32 Mbytes
Step Density Temp Press TotEng 
35000000    1.1530117    297.46093    4.3980446   -8395.9125 
35100000    1.1530117    294.76126     -1239.54   -8401.6535 
35200000    1.1530117    301.53041   -416.15399   -8359.8122 
35300000    1.1530117    299.56129   -767.75919   -8470.1835 
35400000    1.1530117    288.81362    720.46185   -8465.9959 
35500000    1.1530117     313.7949   -213.32991   -8297.8718 
35600000    1.1530117    292.17296     911.6634   -8433.5897 
35700000    1.1530117     296.6649    422.24057   -8402.1871 
35800000    1.1530117    304.08715   -146.27612   -8422.9485 
35900000    1.1530117    300.80503    33.860807   -8353.9251 
36000000    1.1530117    288.39913    1121.1871   -8453.3395 
36100000    1.1530117    296.12334    450.85641   -8432.8336 
36200000    1.1530117    291.71181    959.29728   -8397.3125 
36300000    1.1530117    304.80434   -736.84706   -8387.1173 
36400000    1.1530117     292.6666    375.65656   -8390.1919 
36500000    1.1530117    295.05617   -172.43676   -8424.9382 
36600000    1.1530117    297.30113   -104.10068   -8395.8567 
36700000    1.1530117    300.24402   -91.125379   -8476.7454 
36800000    1.1530117     308.8585   -183.53616   -8365.6239 
36900000    1.1530117    307.41502    393.38446     -8370.22 
37000000    1.1530117    298.28017   -108.81082    -8485.503 
37100000    1.1530117    302.01088   -198.82317   -8377.1865 
37200000    1.1530117    297.37678    82.594092   -8372.2591 
37300000    1.1530117    302.39127    633.24996   -8389.8297 
37400000    1.1530117    311.49824    590.70863   -8336.4542 
37500000    1.1530117    297.46466    487.73414   -8372.9703 
37600000    1.1530117    299.94098    349.33291   -8462.1339 
37700000    1.1530117     296.9729   -264.10939   -8443.3247 
37800000    1.1530117    290.98526    284.19743   -8413.1236 
37900000    1.1530117    308.62766   -427.13477   -8343.1336 
38000000    1.1530117    292.94443   -5.6539896   -8446.0486 
38100000    1.1530117    295.42626    -408.4707   -8351.4059 
38200000    1.1530117    297.25246    720.89781   -8467.1109 
38300000    1.1530117    292.31827    224.10766   -8437.2199 
38400000    1.1530117     307.1061   -286.19815   -8412.9494 
38500000    1.1530117    296.97294    849.32545   -8354.2652 
38600000    1.1530117    296.45258   -231.68009     -8380.72 
38700000    1.1530117    291.92575   -595.99544   -8446.2133 
38800000    1.1530117     300.0702   -197.83325   -8386.5427 
38900000    1.1530117    309.06912    270.80688   -8402.6026 
39000000    1.1530117    279.31884    335.98768   -8373.4123 
39100000    1.1530117    296.44465   -54.212233   -8407.3754 
39200000    1.1530117    291.99994    220.70322   -8447.1406 
39300000    1.1530117    290.29196   -431.60764    -8447.261 
39400000    1.1530117    296.84163    307.46705   -8391.9018 
39500000    1.1530117    296.11882   -78.625354   -8432.0243 
39600000    1.1530117    308.64195    55.074834   -8385.0311 
39700000    1.1530117    293.99726   -481.84456   -8470.7272 
39800000    1.1530117    302.05502   -351.14835   -8411.3469 
39900000    1.1530117    305.92795    262.65255   -8366.0698 
40000000    1.1530117    294.33054   -167.01131   -8408.9677 
Loop time of 24843.8 on 12 procs for 5000000 steps with 1572 atoms

Performance: 17.389 ns/day, 1.380 hours/ns, 201.257 timesteps/s
93.6% CPU use with 12 MPI tasks x no OpenMP threads

MPI task timing breakdown:
Section |  min time  |  avg time  |  max time  |%varavg| %total
---------------------------------------------------------------
Pair    | 14293      | 15166      | 16047      | 490.4 | 61.04
Bond    | 66.697     | 68.006     | 68.923     |   8.9 |  0.27
Kspace  | 6049.2     | 6932.7     | 7804.6     | 727.2 | 27.91
Neigh   | 408.94     | 409.33     | 409.71     |   1.1 |  1.65
Comm    | 725.55     | 732.54     | 741.43     |  15.7 |  2.95
Output  | 1.6891     | 1.6926     | 1.6985     |   0.2 |  0.01
Modify  | 1433.6     | 1436.4     | 1439.6     |   5.0 |  5.78
Other   |            | 97.25      |            |       |  0.39

Nlocal:    131 ave 145 max 119 min
Histogram: 2 2 0 1 1 0 3 1 1 1
Nghost:    4228.67 ave 4276 max 4155 min
Histogram: 1 0 0 1 1 3 1 2 1 2
Neighs:    47711.1 ave 55662 max 43864 min
Histogram: 3 0 4 1 1 1 1 0 0 1

Total # of neighbors = 572533
Ave neighs/atom = 364.207
Ave special neighs/atom = 1.9084
Neighbor list builds = 201520
Dangerous builds = 0
PPPM initialization ...
  extracting TIP4P info from pair style
  using 12-bit tables for long-range coulomb (../kspace.cpp:321)
  G vector (1/distance) = 0.310407
  grid = 24 24 24
  stencil order = 5
  estimated absolute RMS force accuracy = 0.00365829
  estimated relative force accuracy = 1.10168e-05
  using double precision FFTs
  3d grid and FFT values/proc = 5415 1152
Setting up Verlet run ...
  Unit style    : real
  Current step  : 40000000
  Time step     : 1
Per MPI rank memory allocation (min/avg/max) = 14.31 | 14.32 | 14.32 Mbytes
Step Density Temp Press TotEng 
40000000    1.1530117    294.33054   -166.50446   -8408.9677 
40100000    1.1530117    307.81025    440.65471   -8379.1195 
40200000    1.1530117    301.04248     94.29226   -8329.7638 
40300000    1.1530117    305.04067   -745.93615   -8395.0766 
40400000    1.1530117    298.69539   -172.54404   -8410.4319 
40500000    1.1530117    294.15706    112.65364    -8476.116 
40600000    1.1530117    298.07011    178.44297   -8420.0306 
40700000    1.1530117    278.95978   -577.73124   -8426.5751 
40800000    1.1530117    295.51188   -147.97981   -8395.9948 
40900000    1.1530117    307.19641    106.86063   -8341.5305 
41000000    1.1530117    292.82465   -683.43493   -8441.6712 
41100000    1.1530117    305.07994    166.33228   -8346.0243 
41200000    1.1530117    305.06624   -607.11478   -8347.8299 
41300000    1.1530117     293.6624    812.90716   -8423.8576 
41400000    1.1530117    295.81104    542.03233   -8420.2474 
41500000    1.1530117    302.13624    53.987909    -8398.755 
41600000    1.1530117     292.5718    236.82361   -8477.8728 
41700000    1.1530117    289.21157   -798.98482   -8469.4414 
41800000    1.1530117    297.83175    450.40713   -8388.8179 
41900000    1.1530117    292.41509    94.436398   -8423.6746 
42000000    1.1530117      298.594   -111.10723   -8381.6946 
42100000    1.1530117    293.61513    884.30292   -8422.1985 
42200000    1.1530117    308.61361    -439.3598   -8392.2827 
42300000    1.1530117    305.94598   -584.01723    -8457.786 
42400000    1.1530117    311.54669   -159.66428   -8402.7678 
42500000    1.1530117    286.59328   -790.71525     -8421.08 
42600000    1.1530117    297.15666   -19.160846   -8450.8929 
42700000    1.1530117    304.82555    592.09605   -8361.5478 
42800000    1.1530117    301.59625   -29.378863   -8359.3094 
42900000    1.1530117    300.59346    352.62207   -8395.3379 
43000000    1.1530117    287.62521    193.84156   -8418.7201 
43100000    1.1530117    296.68997   -603.86291   -8438.8788 
43200000    1.1530117    305.33877   -184.46265   -8342.3385 
43300000    1.1530117    294.46231   -1245.4853   -8424.3712 
43400000    1.1530117    301.96283     1020.057   -8388.8062 
43500000    1.1530117    290.73341    369.83192   -8415.2479 
43600000    1.1530117    286.09759    474.99611   -8473.4602 
43700000    1.1530117    289.85578    406.29968   -8437.4307 
43800000    1.1530117    282.20602   -93.315817   -8466.4781 
43900000    1.1530117    303.49633   -607.11201   -8442.5424 
44000000    1.1530117    289.46235   -290.17312   -8427.1286 
44100000    1.1530117    289.98783    150.92445   -8428.1404 
44200000    1.1530117    298.09338   -83.551128   -8373.2482 
44300000    1.1530117    300.80499    265.49513    -8385.999 
44400000    1.1530117    302.63625    333.52476   -8381.5854 
44500000    1.1530117    301.66281    737.86159   -8430.1546 
44600000    1.1530117    300.50971    99.367187   -8393.3241 
44700000    1.1530117    302.13064   -515.69102   -8351.9403 
44800000    1.1530117    299.89641    518.42852   -8403.4351 
44900000    1.1530117    295.79243   -1360.7649   -8448.9438 
45000000    1.1530117    308.42736    123.34489   -8459.9467 
Loop time of 24949.9 on 12 procs for 5000000 steps with 1572 atoms

Performance: 17.315 ns/day, 1.386 hours/ns, 200.402 timesteps/s
93.3% CPU use with 12 MPI tasks x no OpenMP threads

MPI task timing breakdown:
Section |  min time  |  avg time  |  max time  |%varavg| %total
---------------------------------------------------------------
Pair    | 13996      | 15126      | 16000      | 614.2 | 60.63
Bond    | 66.381     | 67.739     | 68.7       |   9.0 |  0.27
Kspace  | 6200.5     | 7077.6     | 8207.8     | 899.8 | 28.37
Neigh   | 409.65     | 409.98     | 410.4      |   1.0 |  1.64
Comm    | 725.91     | 733.25     | 741.77     |  15.4 |  2.94
Output  | 1.6893     | 1.6913     | 1.6974     |   0.2 |  0.01
Modify  | 1433.6     | 1436.4     | 1439.4     |   4.8 |  5.76
Other   |            | 97.28      |            |       |  0.39

Nlocal:    131 ave 144 max 124 min
Histogram: 3 1 4 0 0 1 0 1 1 1
Nghost:    4243.42 ave 4287 max 4195 min
Histogram: 2 0 0 1 2 4 0 0 2 1
Neighs:    47730.4 ave 56017 max 42549 min
Histogram: 2 1 3 2 1 1 0 0 0 2

Total # of neighbors = 572765
Ave neighs/atom = 364.354
Ave special neighs/atom = 1.9084
Neighbor list builds = 201486
Dangerous builds = 0
PPPM initialization ...
  extracting TIP4P info from pair style
  using 12-bit tables for long-range coulomb (../kspace.cpp:321)
  G vector (1/distance) = 0.310407
  grid = 24 24 24
  stencil order = 5
  estimated absolute RMS force accuracy = 0.00365829
  estimated relative force accuracy = 1.10168e-05
  using double precision FFTs
  3d grid and FFT values/proc = 5415 1152
Setting up Verlet run ...
  Unit style    : real
  Current step  : 45000000
  Time step     : 1
Per MPI rank memory allocation (min/avg/max) = 14.31 | 14.32 | 14.32 Mbytes
Step Density Temp Press TotEng 
45000000    1.1530117    308.42736    123.21858   -8459.9467 
45100000    1.1530117    298.32031   -306.10401   -8408.8639 
45200000    1.1530117    314.33381   -397.92409   -8359.1987 
45300000    1.1530117    293.25947   -350.82175    -8461.207 
45400000    1.1530117    301.05705   -309.47962   -8328.8899 
45500000    1.1530117    296.70625   -407.23488   -8397.7033 
45600000    1.1530117    288.94309    104.42381   -8476.5533 
45700000    1.1530117     291.5897    665.48934   -8437.8584 
45800000    1.1530117    290.09797   -1143.3392   -8502.4609 
45900000    1.1530117    292.23806   -275.64845    -8465.472 
46000000    1.1530117    289.57698   -548.84772   -8448.9045 
46100000    1.1530117    306.94867    1075.4509   -8373.8576 
46200000    1.1530117    292.55236   -477.12443   -8421.8137 
46300000    1.1530117    298.78517    485.28611   -8405.8655 
46400000    1.1530117    305.05727   -343.23132   -8336.5599 
46500000    1.1530117    298.35523     1115.979    -8414.803 
46600000    1.1530117    301.05138    642.50158   -8380.3197 
46700000    1.1530117    307.76131     31.23996   -8406.6963 
46800000    1.1530117    301.25097    682.12613    -8398.571 
46900000    1.1530117    306.61178    787.31916   -8368.4831 
47000000    1.1530117    311.04644   -386.42993   -8321.5891 
47100000    1.1530117    299.35977    207.59561   -8437.5484 
47200000    1.1530117    299.46169   -1.5147953   -8404.8529 
47300000    1.1530117    296.71874   -842.06971   -8401.9338 
47400000    1.1530117    290.40535    147.07269   -8386.0643 
47500000    1.1530117    287.13856     940.6886   -8427.5948 
47600000    1.1530117    293.62366    9.3540318   -8388.0302 
47700000    1.1530117     318.2241   -11.555774   -8330.3936 
47800000    1.1530117    310.38357   -229.77569   -8315.1859 
47900000    1.1530117    292.53334   -358.36539   -8456.3053 
48000000    1.1530117    291.92268    269.06315   -8404.0069 
48100000    1.1530117    297.22699    33.042078   -8418.1057 
48200000    1.1530117     316.5385    365.89656   -8350.3706 
48300000    1.1530117    303.10638    727.96089   -8426.7914 
48400000    1.1530117    297.00315    206.63918   -8465.3043 
48500000    1.1530117    285.73315   -575.89937   -8432.7045 
48600000    1.1530117    303.83737   -990.62008   -8399.0295 
48700000    1.1530117    308.82002    204.28895   -8382.9723 
48800000    1.1530117     298.0019   -182.79708    -8400.367 
48900000    1.1530117    287.08906   -1298.3684   -8458.8551 
49000000    1.1530117    298.28943    379.51692    -8428.202 
49100000    1.1530117    297.45055   -56.335342   -8421.8834 
49200000    1.1530117    295.44166   -151.40253   -8390.8842 
49300000    1.1530117    290.87723   -275.88497   -8460.6535 
49400000    1.1530117    292.78539   -182.63327    -8477.405 
49500000    1.1530117     287.3157    383.63464    -8342.183 
49600000    1.1530117    292.83208   -492.79037   -8444.5502 
49700000    1.1530117    295.51622    485.36403   -8287.3815 
49800000    1.1530117     288.5466    452.14784   -8471.9489 
49900000    1.1530117    306.11464    812.54174   -8411.9806 
50000000    1.1530117    293.39711   -352.28172   -8464.5059 
Loop time of 24976.3 on 12 procs for 5000000 steps with 1572 atoms

Performance: 17.296 ns/day, 1.388 hours/ns, 200.190 timesteps/s
93.3% CPU use with 12 MPI tasks x no OpenMP threads

MPI task timing breakdown:
Section |  min time  |  avg time  |  max time  |%varavg| %total
---------------------------------------------------------------
Pair    | 14022      | 15162      | 16084      | 629.3 | 60.71
Bond    | 66.274     | 67.562     | 68.495     |   9.1 |  0.27
Kspace  | 6145.2     | 7069.5     | 8208.5     | 923.3 | 28.30
Neigh   | 409.32     | 409.71     | 410.05     |   1.0 |  1.64
Comm    | 725.66     | 733.03     | 741.37     |  15.4 |  2.93
Output  | 1.6819     | 1.6856     | 1.6919     |   0.2 |  0.01
Modify  | 1432.1     | 1434.9     | 1437.9     |   4.7 |  5.75
Other   |            | 97.58      |            |       |  0.39

Nlocal:    131 ave 142 max 117 min
Histogram: 2 0 0 0 3 1 2 2 0 2
Nghost:    4177.25 ave 4207 max 4143 min
Histogram: 1 0 2 3 0 1 0 1 2 2
Neighs:    47714.4 ave 55569 max 44100 min
Histogram: 4 2 2 0 1 0 2 0 0 1

Total # of neighbors = 572573
Ave neighs/atom = 364.232
Ave special neighs/atom = 1.9084
Neighbor list builds = 201510
Dangerous builds = 0
