LAMMPS (16 Mar 2018)
Reading data file ...
  orthogonal box = (0 0 0) to (25.8482 25.8482 25.8482)
  2 by 2 by 3 MPI processor grid
  reading atoms ...
  1572 atoms
  scanning bonds ...
  2 = max bonds/atom
  scanning angles ...
  1 = max angles/atom
  reading bonds ...
  1000 bonds
  reading angles ...
  500 angles
Finding 1-2 1-3 1-4 neighbors ...
  special bond factors lj:   0          0          0         
  special bond factors coul: 0          0          0         
  2 = max # of 1-2 neighbors
  1 = max # of 1-3 neighbors
  1 = max # of 1-4 neighbors
  2 = max # of special neighbors
Setting atom values ...
  500 settings made for charge
Setting atom values ...
  1000 settings made for charge
Setting atom values ...
  36 settings made for charge
Setting atom values ...
  36 settings made for charge
500 atoms in group wat
36 atoms in group K
36 atoms in group Cl
Finding SHAKE clusters ...
  0 = # of size 2 clusters
  0 = # of size 3 clusters
  0 = # of size 4 clusters
  500 = # of frozen angles
PPPM initialization ...
  extracting TIP4P info from pair style
  using 12-bit tables for long-range coulomb (../kspace.cpp:321)
  G vector (1/distance) = 0.309797
  grid = 24 24 24
  stencil order = 5
  estimated absolute RMS force accuracy = 0.00375155
  estimated relative force accuracy = 1.12977e-05
  using double precision FFTs
  3d grid and FFT values/proc = 5415 1152
Neighbor list info ...
  update every 1 steps, delay 0 steps, check yes
  max neighbors/atom: 2000, page size: 100000
  master list distance cutoff = 12.3092
  ghost atom cutoff = 12.3092
  binsize = 6.1546, bins = 5 5 5
  1 neighbor lists, perpetual/occasional/extra = 1 0 0
  (1) pair lj/cut/tip4p/long, perpetual
      attributes: half, newton on
      pair build: half/bin/newton
      stencil: half/bin/3d/newton
      bin: standard
Setting up Verlet run ...
  Unit style    : real
  Current step  : 0
  Time step     : 0.001
Per MPI rank memory allocation (min/avg/max) = 8.286 | 8.289 | 8.293 Mbytes
Step Density Temp Press TotEng 
       0    1.1241608    437.34234    170151.77    2311.9202 
   10000    1.0219877    1144.3962    14560.686    349.62557 
Loop time of 39.6178 on 12 procs for 10000 steps with 1572 atoms

Performance: 0.022 ns/day, 1100.495 hours/ns, 252.412 timesteps/s
94.1% CPU use with 12 MPI tasks x no OpenMP threads

MPI task timing breakdown:
Section |  min time  |  avg time  |  max time  |%varavg| %total
---------------------------------------------------------------
Pair    | 21.85      | 23.423     | 26.22      |  28.6 | 59.12
Bond    | 0.0054326  | 0.0063959  | 0.0078275  |   0.8 |  0.02
Kspace  | 7.1645     | 9.9591     | 11.512     |  43.9 | 25.14
Neigh   | 0.0017767  | 0.0017875  | 0.001794   |   0.0 |  0.00
Comm    | 1.2137     | 1.2362     | 1.264      |   1.2 |  3.12
Output  | 5.9411e-05 | 7.927e-05  | 0.00028734 |   0.0 |  0.00
Modify  | 4.4427     | 4.7295     | 4.8128     |   4.3 | 11.94
Other   |            | 0.2621     |            |       |  0.66

Nlocal:    131 ave 139 max 124 min
Histogram: 1 1 3 1 2 0 0 1 1 2
Nghost:    4111.75 ave 4172 max 4023 min
Histogram: 2 1 1 0 0 0 0 4 2 2
Neighs:    43958.3 ave 47800 max 40849 min
Histogram: 3 0 1 3 0 2 0 0 1 2

Total # of neighbors = 527500
Ave neighs/atom = 335.56
Ave special neighs/atom = 1.9084
Neighbor list builds = 1
Dangerous builds = 0
PPPM initialization ...
  extracting TIP4P info from pair style
  using 12-bit tables for long-range coulomb (../kspace.cpp:321)
  G vector (1/distance) = 0.310448
  grid = 25 25 25
  stencil order = 5
  estimated absolute RMS force accuracy = 0.00343494
  estimated relative force accuracy = 1.03442e-05
  using double precision FFTs
  3d grid and FFT values/proc = 6400 1875
Setting up Verlet run ...
  Unit style    : real
  Current step  : 10000
  Time step     : 0.01
Per MPI rank memory allocation (min/avg/max) = 8.324 | 8.349 | 8.395 Mbytes
Step Density Temp Press TotEng 
   10000    1.0219877    1144.3962    1441094.7    349.63369 
   20000    1.1558319    312.02572   -1005.7342   -7222.0078 
Loop time of 41.1121 on 12 procs for 10000 steps with 1572 atoms

Performance: 0.210 ns/day, 114.200 hours/ns, 243.238 timesteps/s
91.6% CPU use with 12 MPI tasks x no OpenMP threads

MPI task timing breakdown:
Section |  min time  |  avg time  |  max time  |%varavg| %total
---------------------------------------------------------------
Pair    | 20.817     | 22.619     | 24.492     |  23.3 | 55.02
Bond    | 0.0056793  | 0.0067     | 0.0085006  |   0.9 |  0.02
Kspace  | 8.4297     | 10.319     | 12.102     |  34.6 | 25.10
Neigh   | 0.015629   | 0.015674   | 0.015759   |   0.0 |  0.04
Comm    | 1.2348     | 1.2755     | 1.296      |   1.6 |  3.10
Output  | 6.2421e-05 | 8.347e-05  | 0.00030546 |   0.0 |  0.00
Modify  | 4.6306     | 5.1451     | 6.7336     |  21.7 | 12.51
Other   |            | 1.731      |            |       |  4.21

Nlocal:    131 ave 137 max 125 min
Histogram: 1 1 3 0 2 0 0 2 1 2
Nghost:    4258.08 ave 4342 max 4170 min
Histogram: 2 0 2 0 1 3 0 2 1 1
Neighs:    47270.4 ave 50715 max 43106 min
Histogram: 1 0 3 0 2 0 1 2 1 2

Total # of neighbors = 567245
Ave neighs/atom = 360.843
Ave special neighs/atom = 1.9084
Neighbor list builds = 9
Dangerous builds = 0
PPPM initialization ...
  extracting TIP4P info from pair style
  using 12-bit tables for long-range coulomb (../kspace.cpp:321)
  G vector (1/distance) = 0.310466
  grid = 24 24 24
  stencil order = 5
  estimated absolute RMS force accuracy = 0.00364942
  estimated relative force accuracy = 1.09901e-05
  using double precision FFTs
  3d grid and FFT values/proc = 5415 1152
Setting up Verlet run ...
  Unit style    : real
  Current step  : 20000
  Time step     : 0.1
Per MPI rank memory allocation (min/avg/max) = 8.286 | 8.29 | 8.293 Mbytes
Step Density Temp Press TotEng 
   20000    1.1558319    312.02572   -22404.869   -7222.0088 
   30000    1.1562132    289.10889   -150.70964   -8304.5771 
Loop time of 42.9154 on 12 procs for 10000 steps with 1572 atoms

Performance: 2.013 ns/day, 11.921 hours/ns, 233.017 timesteps/s
94.1% CPU use with 12 MPI tasks x no OpenMP threads

MPI task timing breakdown:
Section |  min time  |  avg time  |  max time  |%varavg| %total
---------------------------------------------------------------
Pair    | 24.407     | 26.225     | 28.369     |  26.5 | 61.11
Bond    | 0.0055885  | 0.0065348  | 0.0078312  |   0.8 |  0.02
Kspace  | 8.048      | 10.207     | 12.003     |  42.6 | 23.79
Neigh   | 0.087676   | 0.08786    | 0.088045   |   0.1 |  0.20
Comm    | 1.3107     | 1.3321     | 1.3662     |   1.4 |  3.10
Output  | 6.0812e-05 | 8.2552e-05 | 0.00030524 |   0.0 |  0.00
Modify  | 4.5026     | 4.7901     | 4.8725     |   4.2 | 11.16
Other   |            | 0.2662     |            |       |  0.62

Nlocal:    131 ave 135 max 124 min
Histogram: 1 1 1 0 0 1 1 2 1 4
Nghost:    4212 ave 4263 max 4150 min
Histogram: 2 0 0 1 1 2 2 2 1 1
Neighs:    47743.2 ave 52802 max 42806 min
Histogram: 1 1 1 3 1 1 0 1 2 1

Total # of neighbors = 572918
Ave neighs/atom = 364.452
Ave special neighs/atom = 1.9084
Neighbor list builds = 45
Dangerous builds = 0
PPPM initialization ...
  extracting TIP4P info from pair style
  using 12-bit tables for long-range coulomb (../kspace.cpp:321)
  G vector (1/distance) = 0.310474
  grid = 24 24 24
  stencil order = 5
  estimated absolute RMS force accuracy = 0.00364823
  estimated relative force accuracy = 1.09865e-05
  using double precision FFTs
  3d grid and FFT values/proc = 5415 1152
Setting up Verlet run ...
  Unit style    : real
  Current step  : 30000
  Time step     : 0.2
Per MPI rank memory allocation (min/avg/max) = 8.287 | 8.311 | 8.536 Mbytes
Step Density Temp Press TotEng 
   30000    1.1562132    289.10889   -3745.2769   -8304.5771 
   40000    1.1483204    298.16876   -365.31758    -8384.163 
Loop time of 43.9863 on 12 procs for 10000 steps with 1572 atoms

Performance: 3.928 ns/day, 6.109 hours/ns, 227.343 timesteps/s
92.9% CPU use with 12 MPI tasks x no OpenMP threads

MPI task timing breakdown:
Section |  min time  |  avg time  |  max time  |%varavg| %total
---------------------------------------------------------------
Pair    | 23.807     | 26.188     | 29.835     |  39.0 | 59.54
Bond    | 0.0056676  | 0.0066349  | 0.0082442  |   0.8 |  0.02
Kspace  | 7.6051     | 11.241     | 13.635     |  59.5 | 25.56
Neigh   | 0.17343    | 0.17369    | 0.17403    |   0.1 |  0.39
Comm    | 1.3044     | 1.3236     | 1.3502     |   1.0 |  3.01
Output  | 6.0171e-05 | 7.9325e-05 | 0.00028425 |   0.0 |  0.00
Modify  | 4.5027     | 4.7887     | 4.8765     |   4.2 | 10.89
Other   |            | 0.2646     |            |       |  0.60

Nlocal:    131 ave 143 max 120 min
Histogram: 2 1 0 2 0 1 4 1 0 1
Nghost:    4193.67 ave 4247 max 4155 min
Histogram: 2 3 0 1 0 2 2 1 0 1
Neighs:    47380.1 ave 52286 max 42155 min
Histogram: 2 1 1 1 0 1 3 0 1 2

Total # of neighbors = 568561
Ave neighs/atom = 361.68
Ave special neighs/atom = 1.9084
Neighbor list builds = 88
Dangerous builds = 0
PPPM initialization ...
  extracting TIP4P info from pair style
  using 12-bit tables for long-range coulomb (../kspace.cpp:321)
  G vector (1/distance) = 0.310309
  grid = 24 24 24
  stencil order = 5
  estimated absolute RMS force accuracy = 0.00367313
  estimated relative force accuracy = 1.10615e-05
  using double precision FFTs
  3d grid and FFT values/proc = 5415 1152
Setting up Verlet run ...
  Unit style    : real
  Current step  : 40000
  Time step     : 0.5
Per MPI rank memory allocation (min/avg/max) = 8.287 | 8.384 | 8.665 Mbytes
Step Density Temp Press TotEng 
   40000    1.1483204    298.16876   -2718.2723   -8384.1629 
   50000    1.1678552    295.74963   -401.25998   -8435.0346 
Loop time of 44.474 on 12 procs for 10000 steps with 1572 atoms

Performance: 9.714 ns/day, 2.471 hours/ns, 224.851 timesteps/s
93.0% CPU use with 12 MPI tasks x no OpenMP threads

MPI task timing breakdown:
Section |  min time  |  avg time  |  max time  |%varavg| %total
---------------------------------------------------------------
Pair    | 23.688     | 26.33      | 30.092     |  34.2 | 59.20
Bond    | 0.005689   | 0.0064938  | 0.0071167  |   0.5 |  0.01
Kspace  | 7.4983     | 11.247     | 13.894     |  52.4 | 25.29
Neigh   | 0.44097    | 0.44179    | 0.44233    |   0.1 |  0.99
Comm    | 1.3559     | 1.3768     | 1.3945     |   1.0 |  3.10
Output  | 6.0186e-05 | 8.2806e-05 | 0.00031701 |   0.0 |  0.00
Modify  | 4.5224     | 4.8054     | 4.8907     |   4.2 | 10.81
Other   |            | 0.2658     |            |       |  0.60

Nlocal:    131 ave 138 max 120 min
Histogram: 1 0 0 1 2 1 3 0 3 1
Nghost:    4231.92 ave 4250 max 4212 min
Histogram: 2 0 1 1 2 0 2 2 1 1
Neighs:    48415.5 ave 53564 max 43683 min
Histogram: 1 3 0 1 1 2 1 1 0 2

Total # of neighbors = 580986
Ave neighs/atom = 369.584
Ave special neighs/atom = 1.9084
Neighbor list builds = 221
Dangerous builds = 0
PPPM initialization ...
  extracting TIP4P info from pair style
  using 12-bit tables for long-range coulomb (../kspace.cpp:321)
  G vector (1/distance) = 0.310714
  grid = 24 24 24
  stencil order = 5
  estimated absolute RMS force accuracy = 0.00361212
  estimated relative force accuracy = 1.08778e-05
  using double precision FFTs
  3d grid and FFT values/proc = 5415 1152
Setting up Verlet run ...
  Unit style    : real
  Current step  : 0
  Time step     : 2
Per MPI rank memory allocation (min/avg/max) = 8.288 | 8.446 | 8.665 Mbytes
Step Density Temp Press TotEng 
       0    1.1678552    295.74963    -190.0337   -8435.0341 
  100000    1.1333782    278.10508   -1102.2868   -8435.1972 
  200000    1.1592473    308.23629    101.36755   -8275.2158 
  300000    1.1443547    305.04329   -461.46543   -8375.9782 
  400000    1.1541645    294.49426    692.76054   -8412.1763 
  500000    1.1582733    306.63677    74.811615   -8356.5557 
  600000    1.1502949    296.84203    753.15055   -8390.9033 
  700000    1.1546761    311.08549   -252.18879   -8365.8911 
  800000    1.1500261    300.53998   -481.37395   -8379.8463 
  900000    1.1534907    294.10448    360.79667   -8347.6926 
 1000000    1.1640614     296.0261    -4.859383   -8451.7614 
 1100000    1.1581779    301.90232   -134.91864   -8366.2416 
 1200000    1.1671295    303.04918     688.5801   -8364.9037 
 1300000    1.1566939    302.04519    738.56587   -8449.2786 
 1400000    1.1663348    305.44386    548.85431   -8363.5412 
 1500000     1.161411    307.70212   -380.34474   -8410.2752 
 1600000     1.152028    305.42279    329.73964   -8352.5545 
 1700000    1.1480041    301.48843   -203.50887   -8402.5562 
 1800000     1.164189    301.32881    947.77852   -8394.2821 
 1900000    1.1520943    302.83833     297.5726    -8379.598 
 2000000    1.1438273    295.04159     435.4621    -8450.462 
 2100000    1.1578778    297.02165   -641.74172   -8317.8924 
 2200000    1.1554134    299.63704    964.17233   -8390.8259 
 2300000     1.153283    295.40499   -336.41769   -8504.2041 
 2400000    1.1517571    296.93811   -633.78842   -8420.6958 
 2500000    1.1382402    299.56848   -716.07995   -8365.3735 
 2600000    1.1411577    296.96018   -890.18698   -8400.1933 
 2700000    1.1506629    289.57295     305.2226    -8471.544 
 2800000     1.162875    320.38554    1029.2442   -8375.1136 
 2900000    1.1546614    293.89164    307.42918   -8387.5945 
 3000000    1.1566176    304.96727    410.84432   -8380.4906 
 3100000    1.1685739    287.16503    347.38961   -8382.5375 
 3200000    1.1441684    306.25294   -610.19725   -8296.7129 
 3300000    1.1500822     286.7177   -320.12813   -8455.7958 
 3400000    1.1423229    306.18571    712.35755   -8335.9076 
 3500000     1.163698    296.31818   -247.81228   -8389.8337 
 3600000      1.15815    292.98367    1116.9609   -8407.7517 
 3700000    1.1574514    292.47018    182.61305   -8388.7476 
 3800000    1.1668833    299.73322    -521.2598    -8387.109 
 3900000    1.1488692    281.68794    209.46501   -8407.2909 
 4000000    1.1259049    298.71528    -567.9758   -8416.5146 
 4100000    1.1530957    306.40655   -974.18076   -8397.5721 
 4200000    1.1415378    289.88162   -674.02978   -8395.3679 
 4300000    1.1492928    299.97718    568.28761   -8397.3925 
 4400000    1.1344743    298.30832   -773.39756   -8343.9746 
 4500000    1.1488128    297.73116   -527.29032   -8378.2875 
 4600000    1.1467623    278.57942   -55.438849   -8507.8407 
 4700000    1.1480985    292.72323   -607.77779   -8407.5172 
 4800000    1.1587093    299.72484   -409.87258   -8394.2766 
 4900000    1.1584515    296.40041    95.121528    -8406.883 
 5000000    1.1559152    304.53362    243.61148   -8415.9814 
Loop time of 22974.4 on 12 procs for 5000000 steps with 1572 atoms

Performance: 37.607 ns/day, 0.638 hours/ns, 217.634 timesteps/s
93.4% CPU use with 12 MPI tasks x no OpenMP threads

MPI task timing breakdown:
Section |  min time  |  avg time  |  max time  |%varavg| %total
---------------------------------------------------------------
Pair    | 12291      | 13375      | 14550      | 574.3 | 58.22
Bond    | 2.8738     | 3.3521     | 3.7097     |  14.6 |  0.01
Kspace  | 4301.9     | 5470       | 6558.2     | 898.7 | 23.81
Neigh   | 816.65     | 817.65     | 818.51     |   2.1 |  3.56
Comm    | 739.81     | 747.81     | 759.5      |  20.3 |  3.25
Output  | 0.003118   | 0.0041692  | 0.015441   |   5.3 |  0.00
Modify  | 2283.6     | 2425.3     | 2467.1     |  92.7 | 10.56
Other   |            | 134.8      |            |       |  0.59

Nlocal:    131 ave 144 max 123 min
Histogram: 1 3 3 0 1 0 2 1 0 1
Nghost:    4202 ave 4273 max 4143 min
Histogram: 2 1 2 1 0 1 1 2 1 1
Neighs:    47835.2 ave 53366 max 42850 min
Histogram: 2 2 1 1 0 1 2 0 0 3

Total # of neighbors = 574022
Ave neighs/atom = 365.154
Ave special neighs/atom = 1.9084
Neighbor list builds = 401407
Dangerous builds = 0
PPPM initialization ...
  extracting TIP4P info from pair style
  using 12-bit tables for long-range coulomb (../kspace.cpp:321)
  G vector (1/distance) = 0.310467
  grid = 24 24 24
  stencil order = 5
  estimated absolute RMS force accuracy = 0.00364916
  estimated relative force accuracy = 1.09893e-05
  using double precision FFTs
  3d grid and FFT values/proc = 5415 1152
Setting up Verlet run ...
  Unit style    : real
  Current step  : 0
  Time step     : 2
Per MPI rank memory allocation (min/avg/max) = 8.658 | 8.663 | 8.666 Mbytes
Step Density Temp Press TotEng 
       0    1.1559152    304.53362    246.64906    -8415.981 
  100000    1.1536042    289.09005    830.53452    -8518.776 
  200000    1.1490684    277.70036    -498.6374   -8523.5694 
  300000    1.1598769    313.19064   -40.938954   -8387.3084 
  400000    1.1492988    299.50569    333.16783   -8371.2825 
  500000    1.1481089    306.35199   -720.88911   -8325.3168 
  600000    1.1407543    284.36487   -520.64028   -8407.6749 
  700000    1.1376965    294.32526   -2.2328587   -8408.0283 
  800000    1.1304474    304.35281   -454.16521   -8373.7725 
  900000    1.1354704    296.19933   -57.816397   -8384.8689 
 1000000    1.1534569    294.16654   -764.59081   -8441.5379 
 1100000    1.1621007    288.94444   -348.48974   -8425.5468 
 1200000    1.1565362    299.53707    628.91175   -8411.7629 
 1300000    1.1506947    290.82614    632.32087   -8414.0136 
 1400000    1.1446362    307.81183    715.65844   -8345.6328 
 1500000    1.1430702    298.17014    565.01294   -8373.6816 
 1600000    1.1687595    298.22937    505.88822   -8421.5762 
 1700000    1.1559911    301.10515    177.85537   -8311.4798 
 1800000    1.1546148    299.36968    1.2622282     -8403.21 
 1900000    1.1584459    298.08526   -274.24872   -8347.6404 
 2000000    1.1501017    282.30213   -393.21273   -8393.9079 
 2100000    1.1772687    296.22175    587.45072    -8376.856 
 2200000    1.1541382    295.90193    145.63844   -8442.8645 
 2300000    1.1417366    301.55701   -327.11654   -8396.4288 
 2400000    1.1540334     279.0613   -540.18775   -8419.8697 
 2500000    1.1605547    307.58474    615.25014   -8358.4715 
 2600000    1.1625956    304.72126     304.4252   -8433.1254 
 2700000    1.1577603    298.25658   -176.85624   -8347.3723 
 2800000    1.1675472    287.41624   -16.298721   -8449.8928 
 2900000    1.1471939    286.19193    1066.2841   -8450.1475 
 3000000    1.1538414    308.94947    426.02028   -8339.1859 
 3100000     1.166045    296.74157     875.4277   -8456.9706 
 3200000    1.1424761     283.7406   -431.16435   -8409.6905 
 3300000    1.1387277    294.63445   -60.948001   -8314.4326 
 3400000    1.1569576    300.56841    124.15692   -8411.0237 
 3500000    1.1377712    305.44689   -218.17897   -8291.1088 
 3600000    1.1480075    298.02616   -556.19627   -8421.5553 
 3700000    1.1490926     283.9619   -383.74081   -8433.0193 
 3800000    1.1590959    295.69936    -248.9066   -8366.2338 
 3900000    1.1739687    299.79427     539.7134   -8311.2489 
 4000000     1.138451    294.19767     363.0575   -8391.4279 
 4100000    1.1756389    310.70642    323.32279   -8395.8194 
 4200000    1.1438686    294.95096   -794.97869   -8403.9309 
 4300000    1.1494523    285.32004    -1093.127   -8425.0794 
 4400000    1.1449868    313.53466   -621.97408   -8311.7271 
 4500000     1.137937    300.98651    17.949997   -8406.8441 
 4600000    1.1416362    291.03832   -1341.4257   -8437.5102 
 4700000    1.1513139    294.71357   -261.27356   -8355.2367 
 4800000    1.1629811    302.94624    127.11155    -8377.112 
 4900000    1.1674634    319.71082     244.7949   -8345.5057 
 5000000    1.1578027    291.92617   -25.659347   -8415.8546 
Loop time of 23102.7 on 12 procs for 5000000 steps with 1572 atoms

Performance: 37.398 ns/day, 0.642 hours/ns, 216.425 timesteps/s
93.5% CPU use with 12 MPI tasks x no OpenMP threads

MPI task timing breakdown:
Section |  min time  |  avg time  |  max time  |%varavg| %total
---------------------------------------------------------------
Pair    | 12240      | 13397      | 14545      | 582.0 | 57.99
Bond    | 2.9912     | 3.4945     | 4.0266     |  14.6 |  0.02
Kspace  | 4258.7     | 5400.9     | 6561.6     | 917.0 | 23.38
Neigh   | 816.92     | 818.05     | 818.93     |   2.2 |  3.54
Comm    | 739.26     | 748.38     | 759        |  20.2 |  3.24
Output  | 0.21328    | 0.2139     | 0.21994    |   0.4 |  0.00
Modify  | 2457.9     | 2600.5     | 2642.3     |  90.1 | 11.26
Other   |            | 134.7      |            |       |  0.58

Nlocal:    131 ave 141 max 119 min
Histogram: 1 1 0 1 4 0 1 1 0 3
Nghost:    4209.5 ave 4252 max 4156 min
Histogram: 2 0 0 0 2 2 2 1 2 1
Neighs:    47911 ave 54458 max 40237 min
Histogram: 1 0 1 0 3 3 1 2 0 1

Total # of neighbors = 574932
Ave neighs/atom = 365.733
Ave special neighs/atom = 1.9084
Neighbor list builds = 401452
Dangerous builds = 0
Changing box ...
  orthogonal box = (0.126409 0.126409 0.126409) to (25.758 25.7218 25.7218)
  orthogonal box = (0.126409 0.126409 0.126409) to (25.758 25.758 25.7218)
  orthogonal box = (0.126409 0.126409 0.126409) to (25.758 25.758 25.758)
PPPM initialization ...
  extracting TIP4P info from pair style
  using 12-bit tables for long-range coulomb (../kspace.cpp:321)
  G vector (1/distance) = 0.310405
  grid = 24 24 24
  stencil order = 5
  estimated absolute RMS force accuracy = 0.0036586
  estimated relative force accuracy = 1.10178e-05
  using double precision FFTs
  3d grid and FFT values/proc = 5415 1152
Setting up Verlet run ...
  Unit style    : real
  Current step  : 5000000
  Time step     : 0.001
Per MPI rank memory allocation (min/avg/max) = 8.658 | 8.663 | 8.666 Mbytes
Step Density Temp Press TotEng 
 5000000    1.1529113    291.92617   -15611.067   -8430.9135 
 5010000    1.1529113    299.72816   -488.92542   -8397.2462 
Loop time of 29.8808 on 12 procs for 10000 steps with 1572 atoms

Performance: 0.029 ns/day, 830.023 hours/ns, 334.663 timesteps/s
93.6% CPU use with 12 MPI tasks x no OpenMP threads

MPI task timing breakdown:
Section |  min time  |  avg time  |  max time  |%varavg| %total
---------------------------------------------------------------
Pair    | 15.434     | 18.252     | 20.487     |  31.1 | 61.08
Bond    | 0.0032301  | 0.0041177  | 0.0053909  |   1.0 |  0.01
Kspace  | 6.9682     | 9.1643     | 11.916     |  43.2 | 30.67
Neigh   | 0          | 0          | 0          |   0.0 |  0.00
Comm    | 1.2092     | 1.2579     | 1.3316     |   2.9 |  4.21
Output  | 5.8293e-05 | 7.5825e-05 | 0.00025409 |   0.0 |  0.00
Modify  | 1.0216     | 1.0342     | 1.0451     |   0.6 |  3.46
Other   |            | 0.1683     |            |       |  0.56

Nlocal:    131 ave 141 max 120 min
Histogram: 1 1 1 2 2 0 1 1 0 3
Nghost:    4201.83 ave 4250 max 4148 min
Histogram: 1 1 0 2 0 4 1 2 0 1
Neighs:    47706.1 ave 54068 max 40282 min
Histogram: 1 0 1 0 2 4 1 2 0 1

Total # of neighbors = 572473
Ave neighs/atom = 364.169
Ave special neighs/atom = 1.9084
Neighbor list builds = 0
Dangerous builds = 0
PPPM initialization ...
  extracting TIP4P info from pair style
  using 12-bit tables for long-range coulomb (../kspace.cpp:321)
  G vector (1/distance) = 0.310405
  grid = 24 24 24
  stencil order = 5
  estimated absolute RMS force accuracy = 0.0036586
  estimated relative force accuracy = 1.10178e-05
  using double precision FFTs
  3d grid and FFT values/proc = 5415 1152
Setting up Verlet run ...
  Unit style    : real
  Current step  : 5010000
  Time step     : 0.01
Per MPI rank memory allocation (min/avg/max) = 8.658 | 8.663 | 8.666 Mbytes
Step Density Temp Press TotEng 
 5010000    1.1529113    299.72816    -488.9066   -8397.2462 
 5020000    1.1529113    306.80285   -580.22674   -8311.5869 
Loop time of 29.7233 on 12 procs for 10000 steps with 1572 atoms

Performance: 0.291 ns/day, 82.565 hours/ns, 336.436 timesteps/s
93.8% CPU use with 12 MPI tasks x no OpenMP threads

MPI task timing breakdown:
Section |  min time  |  avg time  |  max time  |%varavg| %total
---------------------------------------------------------------
Pair    | 15.671     | 18.216     | 20.17      |  30.9 | 61.29
Bond    | 0.0032443  | 0.0040783  | 0.005355   |   0.9 |  0.01
Kspace  | 7.0218     | 8.9373     | 11.437     |  43.4 | 30.07
Neigh   | 0.0058289  | 0.0058372  | 0.0058443  |   0.0 |  0.02
Comm    | 1.2705     | 1.3421     | 1.4205     |   4.0 |  4.52
Output  | 6.0037e-05 | 7.8498e-05 | 0.00026412 |   0.0 |  0.00
Modify  | 1.0382     | 1.0494     | 1.0614     |   0.6 |  3.53
Other   |            | 0.1684     |            |       |  0.57

Nlocal:    131 ave 138 max 116 min
Histogram: 1 0 0 0 1 3 1 0 2 4
Nghost:    4205.83 ave 4246 max 4150 min
Histogram: 1 1 0 0 1 3 0 4 1 1
Neighs:    47672.7 ave 52867 max 39409 min
Histogram: 1 1 0 0 1 1 3 2 1 2

Total # of neighbors = 572072
Ave neighs/atom = 363.913
Ave special neighs/atom = 1.9084
Neighbor list builds = 3
Dangerous builds = 0
PPPM initialization ...
  extracting TIP4P info from pair style
  using 12-bit tables for long-range coulomb (../kspace.cpp:321)
  G vector (1/distance) = 0.310405
  grid = 24 24 24
  stencil order = 5
  estimated absolute RMS force accuracy = 0.0036586
  estimated relative force accuracy = 1.10178e-05
  using double precision FFTs
  3d grid and FFT values/proc = 5415 1152
Setting up Verlet run ...
  Unit style    : real
  Current step  : 5020000
  Time step     : 0.1
Per MPI rank memory allocation (min/avg/max) = 8.658 | 8.663 | 8.666 Mbytes
Step Density Temp Press TotEng 
 5020000    1.1529113    306.80285   -580.45771   -8311.5869 
 5030000    1.1529113    303.65817   -931.45798    -8364.416 
Loop time of 30.6096 on 12 procs for 10000 steps with 1572 atoms

Performance: 2.823 ns/day, 8.503 hours/ns, 326.695 timesteps/s
93.0% CPU use with 12 MPI tasks x no OpenMP threads

MPI task timing breakdown:
Section |  min time  |  avg time  |  max time  |%varavg| %total
---------------------------------------------------------------
Pair    | 16.345     | 18.362     | 20.743     |  29.3 | 59.99
Bond    | 0.0031515  | 0.0041758  | 0.0054424  |   1.0 |  0.01
Kspace  | 7.2718     | 9.6032     | 11.61      |  40.1 | 31.37
Neigh   | 0.075847   | 0.075932   | 0.075991   |   0.0 |  0.25
Comm    | 1.2832     | 1.3361     | 1.4026     |   2.8 |  4.37
Output  | 6.0484e-05 | 7.9289e-05 | 0.00026453 |   0.0 |  0.00
Modify  | 1.0487     | 1.0584     | 1.0686     |   0.5 |  3.46
Other   |            | 0.1694     |            |       |  0.55

Nlocal:    131 ave 145 max 116 min
Histogram: 1 1 0 0 3 3 2 1 0 1
Nghost:    4215.17 ave 4273 max 4172 min
Histogram: 2 1 3 0 3 0 0 1 0 2
Neighs:    47695.2 ave 57119 max 44278 min
Histogram: 3 4 1 1 2 0 0 0 0 1

Total # of neighbors = 572343
Ave neighs/atom = 364.086
Ave special neighs/atom = 1.9084
Neighbor list builds = 38
Dangerous builds = 0
PPPM initialization ...
  extracting TIP4P info from pair style
  using 12-bit tables for long-range coulomb (../kspace.cpp:321)
  G vector (1/distance) = 0.310405
  grid = 24 24 24
  stencil order = 5
  estimated absolute RMS force accuracy = 0.0036586
  estimated relative force accuracy = 1.10178e-05
  using double precision FFTs
  3d grid and FFT values/proc = 5415 1152
Setting up Verlet run ...
  Unit style    : real
  Current step  : 5030000
  Time step     : 0.2
Per MPI rank memory allocation (min/avg/max) = 8.658 | 8.663 | 8.666 Mbytes
Step Density Temp Press TotEng 
 5030000    1.1529113    303.65817   -930.86343    -8364.416 
 5040000    1.1529113    286.71245    172.09181   -8389.7111 
Loop time of 30.4901 on 12 procs for 10000 steps with 1572 atoms

Performance: 5.667 ns/day, 4.235 hours/ns, 327.975 timesteps/s
93.4% CPU use with 12 MPI tasks x no OpenMP threads

MPI task timing breakdown:
Section |  min time  |  avg time  |  max time  |%varavg| %total
---------------------------------------------------------------
Pair    | 15.905     | 18.38      | 20.7       |  27.8 | 60.28
Bond    | 0.0033455  | 0.0041619  | 0.0051554  |   0.9 |  0.01
Kspace  | 7.0744     | 9.3604     | 11.798     |  38.6 | 30.70
Neigh   | 0.16403    | 0.16436    | 0.16457    |   0.0 |  0.54
Comm    | 1.3085     | 1.3574     | 1.401      |   2.3 |  4.45
Output  | 6.2034e-05 | 8.1426e-05 | 0.00027278 |   0.0 |  0.00
Modify  | 1.046      | 1.0559     | 1.0659     |   0.6 |  3.46
Other   |            | 0.1679     |            |       |  0.55

Nlocal:    131 ave 144 max 124 min
Histogram: 3 1 1 3 0 2 0 1 0 1
Nghost:    4239 ave 4294 max 4195 min
Histogram: 4 0 1 0 1 2 2 0 0 2
Neighs:    47689.7 ave 52819 max 41802 min
Histogram: 1 1 0 2 1 3 0 2 0 2

Total # of neighbors = 572276
Ave neighs/atom = 364.043
Ave special neighs/atom = 1.9084
Neighbor list builds = 83
Dangerous builds = 0
PPPM initialization ...
  extracting TIP4P info from pair style
  using 12-bit tables for long-range coulomb (../kspace.cpp:321)
  G vector (1/distance) = 0.310405
  grid = 24 24 24
  stencil order = 5
  estimated absolute RMS force accuracy = 0.0036586
  estimated relative force accuracy = 1.10178e-05
  using double precision FFTs
  3d grid and FFT values/proc = 5415 1152
Setting up Verlet run ...
  Unit style    : real
  Current step  : 5040000
  Time step     : 0.5
Per MPI rank memory allocation (min/avg/max) = 8.658 | 8.663 | 8.666 Mbytes
Step Density Temp Press TotEng 
 5040000    1.1529113    286.71245    170.17667   -8389.7111 
 5050000    1.1529113    313.15595   -546.97074   -8406.8711 
Loop time of 30.6366 on 12 procs for 10000 steps with 1572 atoms

Performance: 14.101 ns/day, 1.702 hours/ns, 326.407 timesteps/s
94.0% CPU use with 12 MPI tasks x no OpenMP threads

MPI task timing breakdown:
Section |  min time  |  avg time  |  max time  |%varavg| %total
---------------------------------------------------------------
Pair    | 17.161     | 18.571     | 20.357     |  21.3 | 60.62
Bond    | 0.0033058  | 0.0042165  | 0.0052754  |   0.9 |  0.01
Kspace  | 7.2559     | 9.0207     | 10.409     |  30.4 | 29.44
Neigh   | 0.41443    | 0.415      | 0.41544    |   0.0 |  1.35
Comm    | 1.356      | 1.3757     | 1.4206     |   1.7 |  4.49
Output  | 6.1855e-05 | 7.9842e-05 | 0.00026581 |   0.0 |  0.00
Modify  | 1.0741     | 1.0803     | 1.0873     |   0.4 |  3.53
Other   |            | 0.1691     |            |       |  0.55

Nlocal:    131 ave 149 max 123 min
Histogram: 2 1 5 1 2 0 0 0 0 1
Nghost:    4221.25 ave 4282 max 4170 min
Histogram: 3 1 1 2 1 0 0 0 1 3
Neighs:    47679.4 ave 56495 max 43380 min
Histogram: 3 3 0 1 2 2 0 0 0 1

Total # of neighbors = 572153
Ave neighs/atom = 363.965
Ave special neighs/atom = 1.9084
Neighbor list builds = 209
Dangerous builds = 0
PPPM initialization ...
  extracting TIP4P info from pair style
  using 12-bit tables for long-range coulomb (../kspace.cpp:321)
  G vector (1/distance) = 0.310405
  grid = 24 24 24
  stencil order = 5
  estimated absolute RMS force accuracy = 0.0036586
  estimated relative force accuracy = 1.10178e-05
  using double precision FFTs
  3d grid and FFT values/proc = 5415 1152
Setting up Verlet run ...
  Unit style    : real
  Current step  : 5050000
  Time step     : 2
Per MPI rank memory allocation (min/avg/max) = 8.658 | 8.663 | 8.666 Mbytes
Step Density Temp Press TotEng 
 5050000    1.1529113    313.15595   -576.49041   -8406.8711 
 5100000    1.1529113    294.87848    -490.7386   -8381.2318 
 5200000    1.1529113    290.74937    129.75829   -8463.2942 
 5300000    1.1529113    292.99671   -727.33159   -8406.8988 
 5400000    1.1529113    310.42661   -466.92377   -8386.2042 
 5500000    1.1529113    288.27897    1335.0227   -8431.4824 
 5600000    1.1529113    310.68203    704.60666   -8336.3209 
 5700000    1.1529113    294.06429    48.744165   -8441.4377 
 5800000    1.1529113     288.5334   -863.02506   -8386.1328 
 5900000    1.1529113    287.38174    1099.6848   -8435.6076 
 6000000    1.1529113    300.16198   -915.88912   -8384.9488 
 6100000    1.1529113    285.85311    719.16208   -8439.6161 
 6200000    1.1529113    300.11369    83.063113   -8381.5921 
 6300000    1.1529113    296.71037   -602.61062   -8392.0125 
 6400000    1.1529113    303.99104    342.13023   -8412.4897 
 6500000    1.1529113     306.1145     292.9203   -8321.4479 
 6600000    1.1529113    287.48756   -795.30854    -8421.592 
 6700000    1.1529113    294.76073    231.62552   -8323.8215 
 6800000    1.1529113    302.79691    373.84061   -8384.2649 
 6900000    1.1529113     294.2142   -769.61306   -8427.5377 
 7000000    1.1529113    310.46748    191.74348   -8358.7415 
 7100000    1.1529113    292.69984    115.09671   -8372.3031 
 7200000    1.1529113    312.58571   -916.93081   -8359.9497 
 7300000    1.1529113    296.15723    -498.6948   -8456.4662 
 7400000    1.1529113    299.40242    420.42983   -8410.5721 
 7500000    1.1529113    299.97479    709.26978   -8354.2175 
 7550000    1.1529113    307.54683   -456.91306   -8360.1457 
Loop time of 8194.46 on 12 procs for 2500000 steps with 1572 atoms

Performance: 52.719 ns/day, 0.455 hours/ns, 305.084 timesteps/s
93.5% CPU use with 12 MPI tasks x no OpenMP threads

MPI task timing breakdown:
Section |  min time  |  avg time  |  max time  |%varavg| %total
---------------------------------------------------------------
Pair    | 4397.7     | 4743.2     | 4947.1     | 281.6 | 57.88
Bond    | 0.84363    | 1.0377     | 1.216      |  12.2 |  0.01
Kspace  | 2141.2     | 2344.9     | 2687.5     | 400.7 | 28.62
Neigh   | 403.49     | 404.05     | 404.49     |   1.6 |  4.93
Comm    | 370.85     | 376.35     | 384.37     |  20.5 |  4.59
Output  | 0.10731    | 0.10765    | 0.11106    |   0.3 |  0.00
Modify  | 280.14     | 281.72     | 283.58     |   6.7 |  3.44
Other   |            | 43.09      |            |       |  0.53

Nlocal:    131 ave 140 max 121 min
Histogram: 1 1 2 1 0 1 2 1 1 2
Nghost:    4191.58 ave 4234 max 4148 min
Histogram: 1 1 2 1 2 1 1 0 0 3
Neighs:    47714.7 ave 52419 max 42759 min
Histogram: 2 0 2 2 0 1 1 0 1 3

Total # of neighbors = 572576
Ave neighs/atom = 364.234
Ave special neighs/atom = 1.9084
Neighbor list builds = 198404
Dangerous builds = 0
PPPM initialization ...
  extracting TIP4P info from pair style
  using 12-bit tables for long-range coulomb (../kspace.cpp:321)
  G vector (1/distance) = 0.310405
  grid = 24 24 24
  stencil order = 5
  estimated absolute RMS force accuracy = 0.0036586
  estimated relative force accuracy = 1.10178e-05
  using double precision FFTs
  3d grid and FFT values/proc = 5415 1152
Setting up Verlet run ...
  Unit style    : real
  Current step  : 0
  Time step     : 2
Per MPI rank memory allocation (min/avg/max) = 14.31 | 14.31 | 14.32 Mbytes
Step Density Temp Press TotEng 
       0    1.1529113    307.54683   -456.54658   -8360.1457 
  100000    1.1529113    294.12749   -802.67541   -8412.5525 
  200000    1.1529113    303.33256   -688.11304   -8451.6056 
  250000    1.1529113    287.60813    -271.1765   -8456.4586 
Loop time of 1282.36 on 12 procs for 250000 steps with 1572 atoms

Performance: 33.688 ns/day, 0.712 hours/ns, 194.953 timesteps/s
93.3% CPU use with 12 MPI tasks x no OpenMP threads

MPI task timing breakdown:
Section |  min time  |  avg time  |  max time  |%varavg| %total
---------------------------------------------------------------
Pair    | 714.63     | 763.18     | 806.32     | 120.2 | 59.51
Bond    | 3.3345     | 3.4011     | 3.468      |   1.9 |  0.27
Kspace  | 311.65     | 354.9      | 403.49     | 176.8 | 27.68
Neigh   | 40.546     | 40.589     | 40.64      |   0.4 |  3.17
Comm    | 38.828     | 39.172     | 39.553     |   3.7 |  3.05
Output  | 0.06938    | 0.071544   | 0.0722     |   0.3 |  0.01
Modify  | 75.723     | 75.897     | 76.14      |   1.3 |  5.92
Other   |            | 5.15       |            |       |  0.40

Nlocal:    131 ave 143 max 120 min
Histogram: 2 0 1 2 2 1 1 1 0 2
Nghost:    4206.58 ave 4243 max 4162 min
Histogram: 2 1 0 1 0 1 3 1 1 2
Neighs:    47719.2 ave 53396 max 40440 min
Histogram: 1 0 0 2 2 1 2 2 1 1

Total # of neighbors = 572630
Ave neighs/atom = 364.268
Ave special neighs/atom = 1.9084
Neighbor list builds = 19864
Dangerous builds = 0
PPPM initialization ...
  extracting TIP4P info from pair style
  using 12-bit tables for long-range coulomb (../kspace.cpp:321)
  G vector (1/distance) = 0.310405
  grid = 24 24 24
  stencil order = 5
  estimated absolute RMS force accuracy = 0.0036586
  estimated relative force accuracy = 1.10178e-05
  using double precision FFTs
  3d grid and FFT values/proc = 5415 1152
Setting up Verlet run ...
  Unit style    : real
  Current step  : 250000
  Time step     : 2
Per MPI rank memory allocation (min/avg/max) = 14.31 | 14.31 | 14.32 Mbytes
Step Density Temp Press TotEng 
  250000    1.1529113    287.60813   -271.39457   -8456.4586 
  300000    1.1529113    277.75108    -130.4233   -8443.1541 
  400000    1.1529113    289.15682    450.12888   -8445.2981 
  500000    1.1529113    303.20353   -1489.3773   -8378.4245 
Loop time of 1292.66 on 12 procs for 250000 steps with 1572 atoms

Performance: 33.420 ns/day, 0.718 hours/ns, 193.400 timesteps/s
92.9% CPU use with 12 MPI tasks x no OpenMP threads

MPI task timing breakdown:
Section |  min time  |  avg time  |  max time  |%varavg| %total
---------------------------------------------------------------
Pair    | 706.5      | 762.53     | 837.15     | 148.6 | 58.99
Bond    | 3.2923     | 3.3902     | 3.4519     |   2.5 |  0.26
Kspace  | 291.25     | 365.63     | 421.65     | 214.9 | 28.29
Neigh   | 40.7       | 40.745     | 40.79      |   0.4 |  3.15
Comm    | 38.884     | 39.249     | 39.621     |   4.1 |  3.04
Output  | 0.10129    | 0.10355    | 0.10426    |   0.2 |  0.01
Modify  | 75.702     | 75.862     | 76.097     |   1.2 |  5.87
Other   |            | 5.152      |            |       |  0.40

Nlocal:    131 ave 139 max 119 min
Histogram: 2 0 0 2 0 1 1 0 4 2
Nghost:    4199.42 ave 4244 max 4132 min
Histogram: 2 0 0 0 1 3 2 0 1 3
Neighs:    47717.4 ave 52524 max 43126 min
Histogram: 2 0 1 2 1 3 0 0 1 2

Total # of neighbors = 572609
Ave neighs/atom = 364.255
Ave special neighs/atom = 1.9084
Neighbor list builds = 19875
Dangerous builds = 0
PPPM initialization ...
  extracting TIP4P info from pair style
  using 12-bit tables for long-range coulomb (../kspace.cpp:321)
  G vector (1/distance) = 0.310405
  grid = 24 24 24
  stencil order = 5
  estimated absolute RMS force accuracy = 0.0036586
  estimated relative force accuracy = 1.10178e-05
  using double precision FFTs
  3d grid and FFT values/proc = 5415 1152
Setting up Verlet run ...
  Unit style    : real
  Current step  : 500000
  Time step     : 2
Per MPI rank memory allocation (min/avg/max) = 14.31 | 14.31 | 14.32 Mbytes
Step Density Temp Press TotEng 
  500000    1.1529113    303.20353   -1489.9915   -8378.4245 
  600000    1.1529113    299.37141     538.8525   -8374.5596 
  700000    1.1529113      302.413   -309.01579   -8371.5179 
  750000    1.1529113    311.87471    95.378625   -8402.4361 
Loop time of 1283.76 on 12 procs for 250000 steps with 1572 atoms

Performance: 33.651 ns/day, 0.713 hours/ns, 194.741 timesteps/s
93.2% CPU use with 12 MPI tasks x no OpenMP threads

MPI task timing breakdown:
Section |  min time  |  avg time  |  max time  |%varavg| %total
---------------------------------------------------------------
Pair    | 712.2      | 760.93     | 816.82     | 133.5 | 59.27
Bond    | 3.3243     | 3.3968     | 3.4464     |   2.1 |  0.26
Kspace  | 302.89     | 358.53     | 407.39     | 194.9 | 27.93
Neigh   | 40.588     | 40.622     | 40.676     |   0.4 |  3.16
Comm    | 38.898     | 39.243     | 39.575     |   4.0 |  3.06
Output  | 0.06771    | 0.069061   | 0.069479   |   0.2 |  0.01
Modify  | 75.643     | 75.808     | 76.042     |   1.2 |  5.91
Other   |            | 5.159      |            |       |  0.40

Nlocal:    131 ave 138 max 120 min
Histogram: 1 0 1 1 1 2 1 0 3 2
Nghost:    4194.08 ave 4238 max 4161 min
Histogram: 3 2 1 0 1 0 1 2 1 1
Neighs:    47704.8 ave 52744 max 42739 min
Histogram: 2 0 2 1 2 0 2 0 1 2

Total # of neighbors = 572458
Ave neighs/atom = 364.159
Ave special neighs/atom = 1.9084
Neighbor list builds = 19876
Dangerous builds = 0
PPPM initialization ...
  extracting TIP4P info from pair style
  using 12-bit tables for long-range coulomb (../kspace.cpp:321)
  G vector (1/distance) = 0.310405
  grid = 24 24 24
  stencil order = 5
  estimated absolute RMS force accuracy = 0.0036586
  estimated relative force accuracy = 1.10178e-05
  using double precision FFTs
  3d grid and FFT values/proc = 5415 1152
Setting up Verlet run ...
  Unit style    : real
  Current step  : 750000
  Time step     : 2
Per MPI rank memory allocation (min/avg/max) = 14.31 | 14.31 | 14.32 Mbytes
Step Density Temp Press TotEng 
  750000    1.1529113    311.87471    94.680302   -8402.4361 
  800000    1.1529113    292.51842   -441.32051   -8389.0785 
  900000    1.1529113    298.74899    395.63282   -8421.0219 
 1000000    1.1529113    297.77305    184.64835   -8385.2911 
Loop time of 1289.71 on 12 procs for 250000 steps with 1572 atoms

Performance: 33.496 ns/day, 0.717 hours/ns, 193.842 timesteps/s
93.0% CPU use with 12 MPI tasks x no OpenMP threads

MPI task timing breakdown:
Section |  min time  |  avg time  |  max time  |%varavg| %total
---------------------------------------------------------------
Pair    | 695.16     | 762.56     | 824.51     | 150.9 | 59.13
Bond    | 3.2874     | 3.388      | 3.4548     |   2.6 |  0.26
Kspace  | 300.45     | 362.79     | 430.23     | 219.3 | 28.13
Neigh   | 40.626     | 40.668     | 40.722     |   0.4 |  3.15
Comm    | 38.934     | 39.305     | 39.653     |   4.1 |  3.05
Output  | 0.10108    | 0.10227    | 0.10275    |   0.1 |  0.01
Modify  | 75.616     | 75.776     | 75.969     |   1.2 |  5.88
Other   |            | 5.12       |            |       |  0.40

Nlocal:    131 ave 141 max 115 min
Histogram: 1 0 1 0 1 3 1 2 0 3
Nghost:    4202.92 ave 4305 max 4099 min
Histogram: 1 0 2 2 0 2 2 2 0 1
Neighs:    47667.2 ave 55081 max 41688 min
Histogram: 1 1 3 1 1 0 3 1 0 1

Total # of neighbors = 572007
Ave neighs/atom = 363.872
Ave special neighs/atom = 1.9084
Neighbor list builds = 19855
Dangerous builds = 0
PPPM initialization ...
  extracting TIP4P info from pair style
  using 12-bit tables for long-range coulomb (../kspace.cpp:321)
  G vector (1/distance) = 0.310405
  grid = 24 24 24
  stencil order = 5
  estimated absolute RMS force accuracy = 0.0036586
  estimated relative force accuracy = 1.10178e-05
  using double precision FFTs
  3d grid and FFT values/proc = 5415 1152
Setting up Verlet run ...
  Unit style    : real
  Current step  : 1000000
  Time step     : 2
Per MPI rank memory allocation (min/avg/max) = 14.31 | 14.31 | 14.32 Mbytes
Step Density Temp Press TotEng 
 1000000    1.1529113    297.77305    183.83489   -8385.2911 
 1100000    1.1529113     298.8399    36.094671    -8422.269 
 1200000    1.1529113    298.21183    70.354079    -8339.856 
 1250000    1.1529113    292.98677    -624.1612   -8402.6815 
Loop time of 1278.15 on 12 procs for 250000 steps with 1572 atoms

Performance: 33.799 ns/day, 0.710 hours/ns, 195.595 timesteps/s
93.4% CPU use with 12 MPI tasks x no OpenMP threads

MPI task timing breakdown:
Section |  min time  |  avg time  |  max time  |%varavg| %total
---------------------------------------------------------------
Pair    | 707.47     | 762.45     | 807        | 126.2 | 59.65
Bond    | 3.3462     | 3.4081     | 3.471      |   2.2 |  0.27
Kspace  | 307.05     | 351.71     | 406.68     | 186.0 | 27.52
Neigh   | 40.426     | 40.463     | 40.504     |   0.3 |  3.17
Comm    | 38.808     | 39.196     | 39.564     |   4.1 |  3.07
Output  | 0.068003   | 0.06971    | 0.070373   |   0.2 |  0.01
Modify  | 75.573     | 75.731     | 75.957     |   1.2 |  5.93
Other   |            | 5.126      |            |       |  0.40

Nlocal:    131 ave 144 max 120 min
Histogram: 1 1 2 2 0 2 2 1 0 1
Nghost:    4204.33 ave 4306 max 4143 min
Histogram: 2 2 0 3 3 0 0 0 1 1
Neighs:    47721.2 ave 52657 max 42505 min
Histogram: 3 0 0 0 1 2 4 0 0 2

Total # of neighbors = 572655
Ave neighs/atom = 364.284
Ave special neighs/atom = 1.9084
Neighbor list builds = 19892
Dangerous builds = 0
PPPM initialization ...
  extracting TIP4P info from pair style
  using 12-bit tables for long-range coulomb (../kspace.cpp:321)
  G vector (1/distance) = 0.310405
  grid = 24 24 24
  stencil order = 5
  estimated absolute RMS force accuracy = 0.0036586
  estimated relative force accuracy = 1.10178e-05
  using double precision FFTs
  3d grid and FFT values/proc = 5415 1152
Setting up Verlet run ...
  Unit style    : real
  Current step  : 1250000
  Time step     : 2
Per MPI rank memory allocation (min/avg/max) = 14.31 | 14.31 | 14.32 Mbytes
Step Density Temp Press TotEng 
 1250000    1.1529113    292.98677   -623.83457   -8402.6815 
 1300000    1.1529113    301.96217    204.01879   -8360.0918 
 1400000    1.1529113    307.73027   -229.58231   -8366.5489 
 1500000    1.1529113    303.91715    -364.8455   -8446.0527 
Loop time of 1285.87 on 12 procs for 250000 steps with 1572 atoms

Performance: 33.596 ns/day, 0.714 hours/ns, 194.421 timesteps/s
93.3% CPU use with 12 MPI tasks x no OpenMP threads

MPI task timing breakdown:
Section |  min time  |  avg time  |  max time  |%varavg| %total
---------------------------------------------------------------
Pair    | 703.65     | 765.3      | 807.08     | 134.2 | 59.52
Bond    | 3.3102     | 3.4019     | 3.4797     |   2.9 |  0.26
Kspace  | 314.69     | 356.27     | 417.92     | 197.3 | 27.71
Neigh   | 40.496     | 40.546     | 40.61      |   0.5 |  3.15
Comm    | 38.826     | 39.21      | 39.56      |   4.0 |  3.05
Output  | 0.10079    | 0.10272    | 0.10323    |   0.2 |  0.01
Modify  | 75.713     | 75.877     | 76.141     |   1.3 |  5.90
Other   |            | 5.16       |            |       |  0.40

Nlocal:    131 ave 148 max 117 min
Histogram: 2 0 0 4 2 1 1 0 1 1
Nghost:    4183.25 ave 4283 max 4104 min
Histogram: 2 0 1 3 1 2 1 1 0 1
Neighs:    47723.2 ave 56617 max 41522 min
Histogram: 3 1 1 1 2 1 0 1 1 1

Total # of neighbors = 572678
Ave neighs/atom = 364.299
Ave special neighs/atom = 1.9084
Neighbor list builds = 19874
Dangerous builds = 0
PPPM initialization ...
  extracting TIP4P info from pair style
  using 12-bit tables for long-range coulomb (../kspace.cpp:321)
  G vector (1/distance) = 0.310405
  grid = 24 24 24
  stencil order = 5
  estimated absolute RMS force accuracy = 0.0036586
  estimated relative force accuracy = 1.10178e-05
  using double precision FFTs
  3d grid and FFT values/proc = 5415 1152
Setting up Verlet run ...
  Unit style    : real
  Current step  : 1500000
  Time step     : 2
Per MPI rank memory allocation (min/avg/max) = 14.31 | 14.31 | 14.32 Mbytes
Step Density Temp Press TotEng 
 1500000    1.1529113    303.91715   -365.21518   -8446.0527 
 1600000    1.1529113     294.2704   -669.25723   -8465.6855 
 1700000    1.1529113    299.09027   -1458.1082   -8437.5102 
 1750000    1.1529113    294.46485    1119.3652   -8360.8019 
Loop time of 1284.97 on 12 procs for 250000 steps with 1572 atoms

Performance: 33.619 ns/day, 0.714 hours/ns, 194.557 timesteps/s
93.1% CPU use with 12 MPI tasks x no OpenMP threads

MPI task timing breakdown:
Section |  min time  |  avg time  |  max time  |%varavg| %total
---------------------------------------------------------------
Pair    | 703.15     | 764.24     | 817.14     | 147.6 | 59.48
Bond    | 3.2862     | 3.3847     | 3.4288     |   2.5 |  0.26
Kspace  | 303.86     | 356.5      | 417.57     | 216.6 | 27.74
Neigh   | 40.512     | 40.547     | 40.6       |   0.4 |  3.16
Comm    | 38.806     | 39.243     | 39.586     |   4.3 |  3.05
Output  | 0.067629   | 0.069247   | 0.06969    |   0.2 |  0.01
Modify  | 75.704     | 75.851     | 76.094     |   1.2 |  5.90
Other   |            | 5.131      |            |       |  0.40

Nlocal:    131 ave 145 max 120 min
Histogram: 2 1 2 1 2 0 0 1 2 1
Nghost:    4223 ave 4280 max 4167 min
Histogram: 2 0 1 1 3 0 2 0 2 1
Neighs:    47733.7 ave 53329 max 40421 min
Histogram: 1 0 1 0 3 1 2 1 2 1

Total # of neighbors = 572804
Ave neighs/atom = 364.379
Ave special neighs/atom = 1.9084
Neighbor list builds = 19826
Dangerous builds = 0
PPPM initialization ...
  extracting TIP4P info from pair style
  using 12-bit tables for long-range coulomb (../kspace.cpp:321)
  G vector (1/distance) = 0.310405
  grid = 24 24 24
  stencil order = 5
  estimated absolute RMS force accuracy = 0.0036586
  estimated relative force accuracy = 1.10178e-05
  using double precision FFTs
  3d grid and FFT values/proc = 5415 1152
Setting up Verlet run ...
  Unit style    : real
  Current step  : 1750000
  Time step     : 2
Per MPI rank memory allocation (min/avg/max) = 14.31 | 14.31 | 14.32 Mbytes
Step Density Temp Press TotEng 
 1750000    1.1529113    294.46485    1119.4469   -8360.8019 
 1800000    1.1529113    295.39329    589.16501   -8394.7679 
 1900000    1.1529113    300.09578    841.31074   -8342.5897 
 2000000    1.1529113    294.02863   -109.11543   -8331.0511 
Loop time of 1284.2 on 12 procs for 250000 steps with 1572 atoms

Performance: 33.640 ns/day, 0.713 hours/ns, 194.674 timesteps/s
93.3% CPU use with 12 MPI tasks x no OpenMP threads

MPI task timing breakdown:
Section |  min time  |  avg time  |  max time  |%varavg| %total
---------------------------------------------------------------
Pair    | 697.95     | 764.27     | 827.88     | 151.7 | 59.51
Bond    | 3.2713     | 3.3741     | 3.4197     |   2.7 |  0.26
Kspace  | 292.35     | 355.75     | 422.06     | 222.8 | 27.70
Neigh   | 40.462     | 40.502     | 40.544     |   0.4 |  3.15
Comm    | 38.854     | 39.25      | 39.591     |   4.0 |  3.06
Output  | 0.10145    | 0.10339    | 0.10374    |   0.2 |  0.01
Modify  | 75.629     | 75.797     | 76.056     |   1.2 |  5.90
Other   |            | 5.156      |            |       |  0.40

Nlocal:    131 ave 141 max 123 min
Histogram: 2 2 2 1 0 0 0 3 1 1
Nghost:    4204.42 ave 4250 max 4181 min
Histogram: 4 0 2 0 4 0 1 0 0 1
Neighs:    47698.1 ave 52812 max 43279 min
Histogram: 2 1 1 2 1 1 1 1 0 2

Total # of neighbors = 572377
Ave neighs/atom = 364.108
Ave special neighs/atom = 1.9084
Neighbor list builds = 19842
Dangerous builds = 0
PPPM initialization ...
  extracting TIP4P info from pair style
  using 12-bit tables for long-range coulomb (../kspace.cpp:321)
  G vector (1/distance) = 0.310405
  grid = 24 24 24
  stencil order = 5
  estimated absolute RMS force accuracy = 0.0036586
  estimated relative force accuracy = 1.10178e-05
  using double precision FFTs
  3d grid and FFT values/proc = 5415 1152
Setting up Verlet run ...
  Unit style    : real
  Current step  : 2000000
  Time step     : 2
Per MPI rank memory allocation (min/avg/max) = 14.31 | 14.31 | 14.32 Mbytes
Step Density Temp Press TotEng 
 2000000    1.1529113    294.02863   -109.28405   -8331.0511 
 2100000    1.1529113    297.68191   -97.960413   -8394.0049 
 2200000    1.1529113    309.42127   -260.74691    -8348.013 
 2300000    1.1529113    309.81734    594.66579   -8389.5875 
 2400000    1.1529113     298.5405    871.82993   -8380.8929 
 2500000    1.1529113     303.5504    370.97781   -8412.4582 
 2600000    1.1529113     295.3213    163.05812   -8420.4472 
 2700000    1.1529113    294.08924    730.21426   -8453.3454 
 2800000    1.1529113     303.3144    505.87051   -8415.4121 
 2900000    1.1529113    293.53595   -796.19557   -8448.9599 
 3000000    1.1529113    302.72787    1872.4433   -8366.7562 
Loop time of 5114.81 on 12 procs for 1000000 steps with 1572 atoms

Performance: 33.784 ns/day, 0.710 hours/ns, 195.511 timesteps/s
93.5% CPU use with 12 MPI tasks x no OpenMP threads

MPI task timing breakdown:
Section |  min time  |  avg time  |  max time  |%varavg| %total
---------------------------------------------------------------
Pair    | 2829       | 3062.6     | 3262.7     | 250.0 | 59.88
Bond    | 13.357     | 13.616     | 13.816     |   4.4 |  0.27
Kspace  | 1195       | 1395.5     | 1629.1     | 371.3 | 27.28
Neigh   | 161.81     | 161.97     | 162.17     |   0.8 |  3.17
Comm    | 155.54     | 156.95     | 158.46     |   8.1 |  3.07
Output  | 0.33637    | 0.34175    | 0.34324    |   0.3 |  0.01
Modify  | 302.61     | 303.29     | 304.24     |   2.4 |  5.93
Other   |            | 20.58      |            |       |  0.40

Nlocal:    131 ave 140 max 116 min
Histogram: 1 0 0 0 2 3 0 3 1 2
Nghost:    4228.75 ave 4285 max 4142 min
Histogram: 1 0 2 0 1 2 1 0 2 3
Neighs:    47716.9 ave 52224 max 41371 min
Histogram: 2 1 0 1 1 0 1 1 2 3

Total # of neighbors = 572603
Ave neighs/atom = 364.251
Ave special neighs/atom = 1.9084
Neighbor list builds = 79500
Dangerous builds = 0
PPPM initialization ...
  extracting TIP4P info from pair style
  using 12-bit tables for long-range coulomb (../kspace.cpp:321)
  G vector (1/distance) = 0.310405
  grid = 24 24 24
  stencil order = 5
  estimated absolute RMS force accuracy = 0.0036586
  estimated relative force accuracy = 1.10178e-05
  using double precision FFTs
  3d grid and FFT values/proc = 5415 1152
Setting up Verlet run ...
  Unit style    : real
  Current step  : 3000000
  Time step     : 2
Per MPI rank memory allocation (min/avg/max) = 14.31 | 14.31 | 14.32 Mbytes
Step Density Temp Press TotEng 
 3000000    1.1529113    302.72787    1873.0559   -8366.7562 
 3100000    1.1529113    306.20999    538.91588    -8427.969 
 3200000    1.1529113    308.15877    -348.2291   -8312.4837 
 3300000    1.1529113    307.86765   -968.71111   -8373.9972 
 3400000    1.1529113    286.10253   -352.68822   -8456.7495 
 3500000    1.1529113    302.00516    263.43594   -8343.2516 
 3600000    1.1529113    312.17887    36.619372   -8363.8266 
 3700000    1.1529113    300.59061    1123.1754    -8347.471 
 3800000    1.1529113    287.61299   -700.57707   -8429.5336 
 3900000    1.1529113    297.66157   -115.33864   -8421.1593 
 4000000    1.1529113    301.09173   -637.69091   -8356.5718 
Loop time of 5139.35 on 12 procs for 1000000 steps with 1572 atoms

Performance: 33.623 ns/day, 0.714 hours/ns, 194.577 timesteps/s
93.3% CPU use with 12 MPI tasks x no OpenMP threads

MPI task timing breakdown:
Section |  min time  |  avg time  |  max time  |%varavg| %total
---------------------------------------------------------------
Pair    | 2856.5     | 3066.7     | 3250.8     | 268.8 | 59.67
Bond    | 13.291     | 13.584     | 13.837     |   5.1 |  0.26
Kspace  | 1230.2     | 1415.8     | 1627.4     | 396.8 | 27.55
Neigh   | 162.14     | 162.3      | 162.5      |   0.8 |  3.16
Comm    | 155.5      | 156.91     | 158.27     |   8.0 |  3.05
Output  | 0.33639    | 0.33727    | 0.33823    |   0.1 |  0.01
Modify  | 303.04     | 303.65     | 304.05     |   1.8 |  5.91
Other   |            | 20.04      |            |       |  0.39

Nlocal:    131 ave 151 max 116 min
Histogram: 2 0 2 1 3 2 0 0 1 1
Nghost:    4188.17 ave 4237 max 4113 min
Histogram: 1 1 0 1 1 0 2 2 2 2
Neighs:    47691.3 ave 57200 max 39189 min
Histogram: 1 0 2 1 3 2 1 1 0 1

Total # of neighbors = 572296
Ave neighs/atom = 364.056
Ave special neighs/atom = 1.9084
Neighbor list builds = 79437
Dangerous builds = 0
PPPM initialization ...
  extracting TIP4P info from pair style
  using 12-bit tables for long-range coulomb (../kspace.cpp:321)
  G vector (1/distance) = 0.310405
  grid = 24 24 24
  stencil order = 5
  estimated absolute RMS force accuracy = 0.0036586
  estimated relative force accuracy = 1.10178e-05
  using double precision FFTs
  3d grid and FFT values/proc = 5415 1152
Setting up Verlet run ...
  Unit style    : real
  Current step  : 4000000
  Time step     : 2
Per MPI rank memory allocation (min/avg/max) = 14.31 | 14.31 | 14.32 Mbytes
Step Density Temp Press TotEng 
 4000000    1.1529113    301.09173   -637.23987   -8356.5718 
 4100000    1.1529113    307.18519    335.18072   -8405.1547 
 4200000    1.1529113    292.71293   -164.84485   -8363.4575 
 4300000    1.1529113    298.21485    834.68937   -8412.8226 
 4400000    1.1529113    296.18609    173.68296   -8375.8041 
 4500000    1.1529113    294.55979   -291.79498   -8357.7835 
 4600000    1.1529113    304.73643   -623.07422   -8355.5219 
 4700000    1.1529113    295.93289    614.94447   -8398.2499 
 4800000    1.1529113    288.59198   -150.55881   -8426.4612 
 4900000    1.1529113    288.87654    500.10931   -8441.9898 
 5000000    1.1529113    296.31039   -1258.6961   -8377.4978 
Loop time of 5105.06 on 12 procs for 1000000 steps with 1572 atoms

Performance: 33.849 ns/day, 0.709 hours/ns, 195.884 timesteps/s
93.6% CPU use with 12 MPI tasks x no OpenMP threads

MPI task timing breakdown:
Section |  min time  |  avg time  |  max time  |%varavg| %total
---------------------------------------------------------------
Pair    | 2842       | 3056       | 3215.2     | 220.0 | 59.86
Bond    | 13.318     | 13.7       | 13.965     |   4.8 |  0.27
Kspace  | 1232.4     | 1393       | 1607.1     | 326.7 | 27.29
Neigh   | 161.58     | 161.72     | 161.92     |   0.7 |  3.17
Comm    | 155.35     | 156.77     | 158.18     |   7.5 |  3.07
Output  | 0.3366     | 0.34302    | 0.34428    |   0.3 |  0.01
Modify  | 302.29     | 302.95     | 303.81     |   2.3 |  5.93
Other   |            | 20.56      |            |       |  0.40

Nlocal:    131 ave 137 max 118 min
Histogram: 1 0 0 0 1 0 5 1 3 1
Nghost:    4203.5 ave 4263 max 4116 min
Histogram: 1 1 1 1 1 1 0 1 2 3
Neighs:    47736.9 ave 53637 max 40269 min
Histogram: 1 0 1 0 2 2 4 1 0 1

Total # of neighbors = 572843
Ave neighs/atom = 364.404
Ave special neighs/atom = 1.9084
Neighbor list builds = 79483
Dangerous builds = 0
PPPM initialization ...
  extracting TIP4P info from pair style
  using 12-bit tables for long-range coulomb (../kspace.cpp:321)
  G vector (1/distance) = 0.310405
  grid = 24 24 24
  stencil order = 5
  estimated absolute RMS force accuracy = 0.0036586
  estimated relative force accuracy = 1.10178e-05
  using double precision FFTs
  3d grid and FFT values/proc = 5415 1152
Setting up Verlet run ...
  Unit style    : real
  Current step  : 5000000
  Time step     : 2
Per MPI rank memory allocation (min/avg/max) = 14.31 | 14.31 | 14.32 Mbytes
Step Density Temp Press TotEng 
 5000000    1.1529113    296.31039   -1258.5246   -8377.4978 
 5100000    1.1529113    303.68239    208.09601   -8365.0013 
 5200000    1.1529113    288.53098    65.234708   -8365.2343 
 5300000    1.1529113    293.28727    560.25898   -8445.6825 
 5400000    1.1529113    288.96779   -879.58708   -8391.8224 
 5500000    1.1529113     298.0411   -253.63263   -8367.5645 
 5600000    1.1529113     289.5152    241.41552   -8400.3874 
 5700000    1.1529113    301.46658    1366.5087   -8383.7448 
 5800000    1.1529113    299.30148    265.27268   -8411.7222 
 5900000    1.1529113    292.76582     504.8097    -8350.834 
 6000000    1.1529113    306.00193    1387.6403   -8386.4159 
Loop time of 5149.57 on 12 procs for 1000000 steps with 1572 atoms

Performance: 33.556 ns/day, 0.715 hours/ns, 194.191 timesteps/s
93.2% CPU use with 12 MPI tasks x no OpenMP threads

MPI task timing breakdown:
Section |  min time  |  avg time  |  max time  |%varavg| %total
---------------------------------------------------------------
Pair    | 2809.3     | 3060.5     | 3256.4     | 284.1 | 59.43
Bond    | 13.225     | 13.558     | 13.804     |   5.3 |  0.26
Kspace  | 1234.2     | 1431.5     | 1682.7     | 416.6 | 27.80
Neigh   | 162.17     | 162.34     | 162.57     |   0.9 |  3.15
Comm    | 155.46     | 156.84     | 158.13     |   7.5 |  3.05
Output  | 0.33772    | 0.34363    | 0.34493    |   0.3 |  0.01
Modify  | 303.21     | 303.89     | 304.84     |   2.4 |  5.90
Other   |            | 20.57      |            |       |  0.40

Nlocal:    131 ave 146 max 117 min
Histogram: 1 0 1 1 3 4 0 1 0 1
Nghost:    4204.17 ave 4266 max 4151 min
Histogram: 2 0 1 2 0 4 1 1 0 1
Neighs:    47694.4 ave 53488 max 40780 min
Histogram: 1 0 1 1 3 2 0 2 0 2

Total # of neighbors = 572333
Ave neighs/atom = 364.08
Ave special neighs/atom = 1.9084
Neighbor list builds = 79446
Dangerous builds = 0
PPPM initialization ...
  extracting TIP4P info from pair style
  using 12-bit tables for long-range coulomb (../kspace.cpp:321)
  G vector (1/distance) = 0.310405
  grid = 24 24 24
  stencil order = 5
  estimated absolute RMS force accuracy = 0.0036586
  estimated relative force accuracy = 1.10178e-05
  using double precision FFTs
  3d grid and FFT values/proc = 5415 1152
Setting up Verlet run ...
  Unit style    : real
  Current step  : 6000000
  Time step     : 2
Per MPI rank memory allocation (min/avg/max) = 14.31 | 14.31 | 14.32 Mbytes
Step Density Temp Press TotEng 
 6000000    1.1529113    306.00193    1387.0676   -8386.4159 
 6100000    1.1529113    303.02122    907.03019   -8352.4886 
 6200000    1.1529113    297.05074    68.603627   -8403.1801 
 6300000    1.1529113    288.23978   -329.40378   -8406.7238 
 6400000    1.1529113    294.62719   -318.85221   -8358.2823 
 6500000    1.1529113    301.56915    224.74406   -8451.5131 
 6600000    1.1529113    290.73286     17.08244   -8490.0213 
 6700000    1.1529113    312.09476    803.41653   -8342.5806 
 6800000    1.1529113    285.45985    442.95344   -8450.0058 
 6900000    1.1529113    289.55155    552.22283   -8393.1416 
 7000000    1.1529113    288.78706   -789.46243   -8420.0889 
Loop time of 5129.93 on 12 procs for 1000000 steps with 1572 atoms

Performance: 33.685 ns/day, 0.712 hours/ns, 194.935 timesteps/s
93.3% CPU use with 12 MPI tasks x no OpenMP threads

MPI task timing breakdown:
Section |  min time  |  avg time  |  max time  |%varavg| %total
---------------------------------------------------------------
Pair    | 2833.2     | 3055.6     | 3241.7     | 257.8 | 59.56
Bond    | 13.276     | 13.629     | 13.921     |   6.0 |  0.27
Kspace  | 1231.3     | 1416.5     | 1639       | 379.8 | 27.61
Neigh   | 162.17     | 162.36     | 162.62     |   1.0 |  3.16
Comm    | 155.54     | 157.01     | 158.3      |   7.7 |  3.06
Output  | 0.33755    | 0.34297    | 0.34439    |   0.3 |  0.01
Modify  | 303.26     | 303.91     | 304.83     |   2.3 |  5.92
Other   |            | 20.54      |            |       |  0.40

Nlocal:    131 ave 141 max 120 min
Histogram: 1 0 3 0 2 1 2 0 2 1
Nghost:    4229.5 ave 4295 max 4158 min
Histogram: 2 0 0 1 2 2 2 1 1 1
Neighs:    47711 ave 53665 max 42938 min
Histogram: 2 1 0 2 3 1 0 1 1 1

Total # of neighbors = 572532
Ave neighs/atom = 364.206
Ave special neighs/atom = 1.9084
Neighbor list builds = 79502
Dangerous builds = 0
PPPM initialization ...
  extracting TIP4P info from pair style
  using 12-bit tables for long-range coulomb (../kspace.cpp:321)
  G vector (1/distance) = 0.310405
  grid = 24 24 24
  stencil order = 5
  estimated absolute RMS force accuracy = 0.0036586
  estimated relative force accuracy = 1.10178e-05
  using double precision FFTs
  3d grid and FFT values/proc = 5415 1152
Setting up Verlet run ...
  Unit style    : real
  Current step  : 7000000
  Time step     : 2
Per MPI rank memory allocation (min/avg/max) = 14.31 | 14.31 | 14.32 Mbytes
Step Density Temp Press TotEng 
 7000000    1.1529113    288.78706   -789.52611   -8420.0889 
 7100000    1.1529113    284.94055   -168.50141   -8446.6579 
 7200000    1.1529113    313.62996   -34.001705   -8346.1816 
 7300000    1.1529113    302.20728   -367.78181   -8403.9122 
 7400000    1.1529113    301.57828    79.724604   -8384.3756 
 7500000    1.1529113    291.08542   -771.52578   -8402.2957 
 7600000    1.1529113    301.55092   -432.02104   -8297.0925 
 7700000    1.1529113    313.11528   -143.45328   -8305.4675 
 7800000    1.1529113    293.66208    554.90106   -8422.5087 
 7900000    1.1529113    300.02963   -340.44618   -8398.7235 
 8000000    1.1529113    304.80432    232.41471   -8390.3605 
Loop time of 5131.35 on 12 procs for 1000000 steps with 1572 atoms

Performance: 33.675 ns/day, 0.713 hours/ns, 194.881 timesteps/s
93.4% CPU use with 12 MPI tasks x no OpenMP threads

MPI task timing breakdown:
Section |  min time  |  avg time  |  max time  |%varavg| %total
---------------------------------------------------------------
Pair    | 2817.8     | 3063.1     | 3225.7     | 235.0 | 59.69
Bond    | 13.352     | 13.652     | 13.92      |   4.8 |  0.27
Kspace  | 1248.2     | 1411.3     | 1656.7     | 347.1 | 27.50
Neigh   | 161.81     | 161.95     | 162.16     |   0.8 |  3.16
Comm    | 155.51     | 156.93     | 158.42     |   7.7 |  3.06
Output  | 0.33734    | 0.34315    | 0.34464    |   0.3 |  0.01
Modify  | 302.74     | 303.43     | 304.35     |   2.4 |  5.91
Other   |            | 20.64      |            |       |  0.40

Nlocal:    131 ave 148 max 119 min
Histogram: 1 1 1 4 2 0 2 0 0 1
Nghost:    4193.67 ave 4262 max 4102 min
Histogram: 1 0 2 2 0 1 0 2 1 3
Neighs:    47697.9 ave 53292 max 44786 min
Histogram: 3 3 2 0 0 1 1 0 1 1

Total # of neighbors = 572375
Ave neighs/atom = 364.106
Ave special neighs/atom = 1.9084
Neighbor list builds = 79463
Dangerous builds = 0
