LAMMPS (16 Mar 2018)
Reading data file ...
  orthogonal box = (0 0 0) to (25.8482 25.8482 25.8482)
  2 by 2 by 3 MPI processor grid
  reading atoms ...
  1572 atoms
  scanning bonds ...
  2 = max bonds/atom
  scanning angles ...
  1 = max angles/atom
  reading bonds ...
  1000 bonds
  reading angles ...
  500 angles
Finding 1-2 1-3 1-4 neighbors ...
  special bond factors lj:   0          0          0         
  special bond factors coul: 0          0          0         
  2 = max # of 1-2 neighbors
  1 = max # of 1-3 neighbors
  1 = max # of 1-4 neighbors
  2 = max # of special neighbors
Setting atom values ...
  500 settings made for charge
Setting atom values ...
  1000 settings made for charge
Setting atom values ...
  36 settings made for charge
Setting atom values ...
  36 settings made for charge
500 atoms in group wat
36 atoms in group K
36 atoms in group Cl
Finding SHAKE clusters ...
  0 = # of size 2 clusters
  0 = # of size 3 clusters
  0 = # of size 4 clusters
  500 = # of frozen angles
PPPM initialization ...
  extracting TIP4P info from pair style
  using 12-bit tables for long-range coulomb (../kspace.cpp:321)
  G vector (1/distance) = 0.309797
  grid = 24 24 24
  stencil order = 5
  estimated absolute RMS force accuracy = 0.00375155
  estimated relative force accuracy = 1.12977e-05
  using double precision FFTs
  3d grid and FFT values/proc = 5415 1152
Neighbor list info ...
  update every 1 steps, delay 0 steps, check yes
  max neighbors/atom: 2000, page size: 100000
  master list distance cutoff = 12.3092
  ghost atom cutoff = 12.3092
  binsize = 6.1546, bins = 5 5 5
  1 neighbor lists, perpetual/occasional/extra = 1 0 0
  (1) pair lj/cut/tip4p/long, perpetual
      attributes: half, newton on
      pair build: half/bin/newton
      stencil: half/bin/3d/newton
      bin: standard
Setting up Verlet run ...
  Unit style    : real
  Current step  : 0
  Time step     : 0.001
Per MPI rank memory allocation (min/avg/max) = 8.286 | 8.289 | 8.293 Mbytes
Step Density Temp Press TotEng 
       0    1.1241608    437.34234    521450.98    2311.9202 
   10000    1.0218562    1128.9863    14553.846    376.91592 
Loop time of 39.7626 on 12 procs for 10000 steps with 1572 atoms

Performance: 0.022 ns/day, 1104.517 hours/ns, 251.493 timesteps/s
93.0% CPU use with 12 MPI tasks x no OpenMP threads

MPI task timing breakdown:
Section |  min time  |  avg time  |  max time  |%varavg| %total
---------------------------------------------------------------
Pair    | 21.647     | 23.409     | 26.389     |  28.8 | 58.87
Bond    | 0.0053516  | 0.0064012  | 0.0078094  |   0.8 |  0.02
Kspace  | 7.1509     | 10.114     | 11.899     |  44.0 | 25.44
Neigh   | 0.001816   | 0.0018264  | 0.0018367  |   0.0 |  0.00
Comm    | 1.237      | 1.2723     | 1.3266     |   2.1 |  3.20
Output  | 5.962e-05  | 8.1011e-05 | 0.00030519 |   0.0 |  0.00
Modify  | 4.4996     | 4.7423     | 4.7973     |   3.5 | 11.93
Other   |            | 0.2164     |            |       |  0.54

Nlocal:    131 ave 140 max 124 min
Histogram: 1 3 1 1 1 1 1 1 1 1
Nghost:    4116.75 ave 4171 max 4027 min
Histogram: 2 2 0 0 0 0 0 1 5 2
Neighs:    43926.4 ave 48408 max 40542 min
Histogram: 2 1 1 2 2 1 0 1 1 1

Total # of neighbors = 527117
Ave neighs/atom = 335.316
Ave special neighs/atom = 1.9084
Neighbor list builds = 1
Dangerous builds = 0
PPPM initialization ...
  extracting TIP4P info from pair style
  using 12-bit tables for long-range coulomb (../kspace.cpp:321)
  G vector (1/distance) = 0.310445
  grid = 25 25 25
  stencil order = 5
  estimated absolute RMS force accuracy = 0.00343538
  estimated relative force accuracy = 1.03455e-05
  using double precision FFTs
  3d grid and FFT values/proc = 6400 1875
Setting up Verlet run ...
  Unit style    : real
  Current step  : 10000
  Time step     : 0.01
Per MPI rank memory allocation (min/avg/max) = 8.324 | 8.349 | 8.395 Mbytes
Step Density Temp Press TotEng 
   10000    1.0218562    1128.9863    1441102.4    376.90403 
   20000    1.1575871    297.95029   -1542.5176   -7238.2533 
Loop time of 41.9743 on 12 procs for 10000 steps with 1572 atoms

Performance: 0.206 ns/day, 116.595 hours/ns, 238.241 timesteps/s
90.7% CPU use with 12 MPI tasks x no OpenMP threads

MPI task timing breakdown:
Section |  min time  |  avg time  |  max time  |%varavg| %total
---------------------------------------------------------------
Pair    | 20.986     | 22.617     | 25.557     |  26.2 | 53.88
Bond    | 0.0056615  | 0.0066352  | 0.0086028  |   0.9 |  0.02
Kspace  | 8.1667     | 11.099     | 12.735     |  37.4 | 26.44
Neigh   | 0.016142   | 0.016191   | 0.016233   |   0.0 |  0.04
Comm    | 1.2314     | 1.2768     | 1.3306     |   2.2 |  3.04
Output  | 5.9232e-05 | 7.4549e-05 | 0.00023738 |   0.0 |  0.00
Modify  | 4.683      | 5.1545     | 6.8064     |  22.4 | 12.28
Other   |            | 1.804      |            |       |  4.30

Nlocal:    131 ave 137 max 125 min
Histogram: 2 2 0 1 0 3 0 1 0 3
Nghost:    4246.83 ave 4317 max 4179 min
Histogram: 1 3 0 0 3 1 0 1 2 1
Neighs:    47168.3 ave 50709 max 42536 min
Histogram: 1 0 0 3 3 0 0 2 0 3

Total # of neighbors = 566020
Ave neighs/atom = 360.064
Ave special neighs/atom = 1.9084
Neighbor list builds = 9
Dangerous builds = 0
PPPM initialization ...
  extracting TIP4P info from pair style
  using 12-bit tables for long-range coulomb (../kspace.cpp:321)
  G vector (1/distance) = 0.310502
  grid = 24 24 24
  stencil order = 5
  estimated absolute RMS force accuracy = 0.00364393
  estimated relative force accuracy = 1.09736e-05
  using double precision FFTs
  3d grid and FFT values/proc = 5415 1152
Setting up Verlet run ...
  Unit style    : real
  Current step  : 20000
  Time step     : 0.1
Per MPI rank memory allocation (min/avg/max) = 8.286 | 8.29 | 8.293 Mbytes
Step Density Temp Press TotEng 
   20000    1.1575871    297.95029   -29176.173   -7238.2639 
   30000    1.1945968    308.44212    1265.1381   -8313.7748 
Loop time of 43.1525 on 12 procs for 10000 steps with 1572 atoms

Performance: 2.002 ns/day, 11.987 hours/ns, 231.736 timesteps/s
94.3% CPU use with 12 MPI tasks x no OpenMP threads

MPI task timing breakdown:
Section |  min time  |  avg time  |  max time  |%varavg| %total
---------------------------------------------------------------
Pair    | 24.174     | 26.547     | 28.963     |  31.7 | 61.52
Bond    | 0.0056787  | 0.0066998  | 0.0092604  |   1.1 |  0.02
Kspace  | 7.764      | 10.188     | 12.563     |  51.3 | 23.61
Neigh   | 0.084564   | 0.08488    | 0.085117   |   0.1 |  0.20
Comm    | 1.2858     | 1.309      | 1.3266     |   1.0 |  3.03
Output  | 6.1706e-05 | 7.762e-05  | 0.00024703 |   0.0 |  0.00
Modify  | 4.5564     | 4.794      | 4.849      |   3.4 | 11.11
Other   |            | 0.2225     |            |       |  0.52

Nlocal:    131 ave 138 max 119 min
Histogram: 1 0 0 1 2 1 2 1 2 2
Nghost:    4344.25 ave 4386 max 4305 min
Histogram: 1 1 1 2 1 3 1 0 0 2
Neighs:    49213.4 ave 53176 max 44672 min
Histogram: 2 0 3 0 1 0 0 2 2 2

Total # of neighbors = 590561
Ave neighs/atom = 375.675
Ave special neighs/atom = 1.9084
Neighbor list builds = 43
Dangerous builds = 0
PPPM initialization ...
  extracting TIP4P info from pair style
  using 12-bit tables for long-range coulomb (../kspace.cpp:321)
  G vector (1/distance) = 0.311257
  grid = 24 24 24
  stencil order = 5
  estimated absolute RMS force accuracy = 0.00353187
  estimated relative force accuracy = 1.06361e-05
  using double precision FFTs
  3d grid and FFT values/proc = 5415 1152
Setting up Verlet run ...
  Unit style    : real
  Current step  : 30000
  Time step     : 0.2
Per MPI rank memory allocation (min/avg/max) = 8.287 | 8.291 | 8.294 Mbytes
Step Density Temp Press TotEng 
   30000    1.1945968    308.44212   -4301.9215   -8313.7762 
   40000    1.1506532    300.87037    162.01428   -8416.2911 
Loop time of 42.5678 on 12 procs for 10000 steps with 1572 atoms

Performance: 4.059 ns/day, 5.912 hours/ns, 234.919 timesteps/s
94.9% CPU use with 12 MPI tasks x no OpenMP threads

MPI task timing breakdown:
Section |  min time  |  avg time  |  max time  |%varavg| %total
---------------------------------------------------------------
Pair    | 24.404     | 26.451     | 28.314     |  21.4 | 62.14
Bond    | 0.0058421  | 0.0067963  | 0.0087542  |   1.0 |  0.02
Kspace  | 7.7489     | 9.6239     | 11.681     |  35.5 | 22.61
Neigh   | 0.172      | 0.17257    | 0.17295    |   0.1 |  0.41
Comm    | 1.2996     | 1.3154     | 1.3349     |   0.8 |  3.09
Output  | 5.9754e-05 | 7.6529e-05 | 0.0002455  |   0.0 |  0.00
Modify  | 4.5343     | 4.7784     | 4.826      |   3.5 | 11.23
Other   |            | 0.2193     |            |       |  0.52

Nlocal:    131 ave 142 max 115 min
Histogram: 1 0 1 0 1 3 0 3 2 1
Nghost:    4231.5 ave 4289 max 4205 min
Histogram: 4 0 3 0 3 1 0 0 0 1
Neighs:    47805.9 ave 53978 max 41767 min
Histogram: 1 0 1 2 3 1 2 0 1 1

Total # of neighbors = 573671
Ave neighs/atom = 364.931
Ave special neighs/atom = 1.9084
Neighbor list builds = 88
Dangerous builds = 0
PPPM initialization ...
  extracting TIP4P info from pair style
  using 12-bit tables for long-range coulomb (../kspace.cpp:321)
  G vector (1/distance) = 0.310358
  grid = 24 24 24
  stencil order = 5
  estimated absolute RMS force accuracy = 0.00366574
  estimated relative force accuracy = 1.10393e-05
  using double precision FFTs
  3d grid and FFT values/proc = 5415 1152
Setting up Verlet run ...
  Unit style    : real
  Current step  : 40000
  Time step     : 0.5
Per MPI rank memory allocation (min/avg/max) = 8.287 | 8.291 | 8.294 Mbytes
Step Density Temp Press TotEng 
   40000    1.1506532    300.87037    3338.5628   -8416.2932 
   50000    1.1439424    291.60262   0.59439155   -8394.8937 
Loop time of 43.3062 on 12 procs for 10000 steps with 1572 atoms

Performance: 9.975 ns/day, 2.406 hours/ns, 230.914 timesteps/s
94.2% CPU use with 12 MPI tasks x no OpenMP threads

MPI task timing breakdown:
Section |  min time  |  avg time  |  max time  |%varavg| %total
---------------------------------------------------------------
Pair    | 22.056     | 26.294     | 28.97      |  33.2 | 60.72
Bond    | 0.0058392  | 0.0067474  | 0.0082918  |   0.8 |  0.02
Kspace  | 7.4932     | 10.185     | 14.435     |  53.5 | 23.52
Neigh   | 0.43883    | 0.43986    | 0.44069    |   0.1 |  1.02
Comm    | 1.3381     | 1.3586     | 1.378      |   0.9 |  3.14
Output  | 5.9754e-05 | 7.5587e-05 | 0.00023881 |   0.0 |  0.00
Modify  | 4.5564     | 4.802      | 4.8509     |   3.5 | 11.09
Other   |            | 0.2204     |            |       |  0.51

Nlocal:    131 ave 139 max 117 min
Histogram: 1 0 0 0 2 2 2 2 1 2
Nghost:    4205.42 ave 4233 max 4171 min
Histogram: 1 1 2 2 0 0 0 0 2 4
Neighs:    47400.9 ave 53172 max 39146 min
Histogram: 1 0 0 1 1 4 2 0 1 2

Total # of neighbors = 568811
Ave neighs/atom = 361.839
Ave special neighs/atom = 1.9084
Neighbor list builds = 222
Dangerous builds = 0
PPPM initialization ...
  extracting TIP4P info from pair style
  using 12-bit tables for long-range coulomb (../kspace.cpp:321)
  G vector (1/distance) = 0.310217
  grid = 24 24 24
  stencil order = 5
  estimated absolute RMS force accuracy = 0.00368709
  estimated relative force accuracy = 1.11036e-05
  using double precision FFTs
  3d grid and FFT values/proc = 5415 1152
Setting up Verlet run ...
  Unit style    : real
  Current step  : 0
  Time step     : 1
Per MPI rank memory allocation (min/avg/max) = 8.287 | 8.425 | 8.665 Mbytes
Step Density Temp Press TotEng 
       0    1.1439424    291.60262    810.58153   -8394.8938 
  100000    1.1445659    287.45765     510.5251   -8498.8451 
  200000    1.1673537     307.2517    141.23762   -8428.8024 
  300000    1.1583231    296.42527    592.95706   -8368.4841 
  400000    1.1689764    297.77418    639.43918   -8451.2165 
  500000    1.1359029     294.2386   -605.30574   -8379.0303 
  600000    1.1618832    312.59546   -898.33753   -8358.1494 
  700000    1.1497918      304.071   -544.13167   -8399.8784 
  800000    1.1626801    301.99686    1050.5736   -8418.9201 
  900000    1.1560021    295.67779    607.08066   -8395.4476 
 1000000    1.1416171    292.24618    -457.1369   -8385.3016 
 1100000    1.1484226    301.36582    -315.5917      -8362.2 
 1200000    1.1478222    291.26841   -465.02819   -8419.7893 
 1300000    1.1380018    297.48054   -435.83256   -8448.5624 
 1400000    1.1473339    294.08421   -326.30338   -8421.1439 
 1500000    1.1338915    291.94346   -294.03173   -8409.0535 
 1600000    1.1639964     296.9608    283.99568   -8442.0072 
 1700000    1.1736617    304.05284    482.41237   -8404.9096 
 1800000    1.1402107    311.14609   -248.57623   -8382.8325 
 1900000    1.1541288    299.20514    647.02844   -8375.6612 
 2000000    1.1648708    311.05635   -261.97735   -8363.0446 
 2100000    1.1433437    306.64496    480.16816   -8360.3711 
 2200000    1.1368824    292.51846   -293.08604   -8417.7108 
 2300000     1.175783    307.03052    331.33702    -8328.815 
 2400000    1.1591038    303.03377    108.58448   -8398.1731 
 2500000    1.1695031    302.66589    320.26044   -8379.7042 
 2600000     1.150741    288.36849   -350.84715   -8461.4164 
 2700000    1.1504255    300.69416   -257.20564   -8442.3146 
 2800000    1.1332573       285.28   -139.51908   -8381.7683 
 2900000    1.1666787    294.13937    668.92541   -8448.4752 
 3000000    1.1498615    289.48728   -349.66469   -8513.9864 
 3100000    1.1530453    302.24015   -328.43978   -8380.3107 
 3200000    1.1641127    300.88816    868.28123   -8372.2501 
 3300000    1.1434642    289.38804   -52.316966   -8513.5892 
 3400000    1.1777579     290.4218    627.24627    -8424.671 
 3500000    1.1581383    286.06076    1164.1378   -8440.5327 
 3600000     1.163715    293.51564   -21.612424   -8442.6122 
 3700000     1.144871    297.98799   -40.350661   -8385.9899 
 3800000    1.1565896    289.20157    848.31908   -8456.6426 
 3900000    1.1465881    290.30565   -337.95516   -8431.7984 
 4000000    1.1423026    296.70497    69.599461   -8407.3855 
 4100000    1.1303598    296.04981   -933.12896   -8416.8764 
 4200000    1.1523139    289.53114    209.83976   -8488.9775 
 4300000    1.1486836    295.71868   -64.687654   -8401.2464 
 4400000    1.1447811    306.17228   -455.94356   -8370.0044 
 4500000    1.1695954    302.44235    287.13365   -8323.4229 
 4600000    1.1684688    294.97551     402.6784   -8409.2898 
 4700000    1.1520734    293.13968   -399.29379   -8381.7876 
 4800000    1.1539246    298.28254    398.09503   -8397.4396 
 4900000    1.1485446    302.00433    960.09806   -8381.2485 
 5000000     1.153805    296.19148   -89.384912   -8416.7721 
Loop time of 22342.8 on 12 procs for 5000000 steps with 1572 atoms

Performance: 19.335 ns/day, 1.241 hours/ns, 223.786 timesteps/s
93.6% CPU use with 12 MPI tasks x no OpenMP threads

MPI task timing breakdown:
Section |  min time  |  avg time  |  max time  |%varavg| %total
---------------------------------------------------------------
Pair    | 12386      | 13316      | 14239      | 559.7 | 59.60
Bond    | 2.9315     | 3.4036     | 4.1414     |  18.7 |  0.02
Kspace  | 4471.6     | 5388.9     | 6322.7     | 880.5 | 24.12
Neigh   | 411.38     | 412.11     | 412.57     |   2.0 |  1.84
Comm    | 689.74     | 699.89     | 710.13     |  18.7 |  3.13
Output  | 0.0030628  | 0.0038483  | 0.012246   |   4.1 |  0.00
Modify  | 2289       | 2410.6     | 2434.9     |  76.8 | 10.79
Other   |            | 111.4      |            |       |  0.50

Nlocal:    131 ave 140 max 119 min
Histogram: 1 1 0 1 1 2 2 0 2 2
Nghost:    4229.17 ave 4265 max 4191 min
Histogram: 2 0 0 1 2 3 0 2 1 1
Neighs:    47731.7 ave 53043 max 40801 min
Histogram: 2 0 0 1 1 1 3 2 0 2

Total # of neighbors = 572780
Ave neighs/atom = 364.364
Ave special neighs/atom = 1.9084
Neighbor list builds = 203645
Dangerous builds = 0
PPPM initialization ...
  extracting TIP4P info from pair style
  using 12-bit tables for long-range coulomb (../kspace.cpp:321)
  G vector (1/distance) = 0.310423
  grid = 24 24 24
  stencil order = 5
  estimated absolute RMS force accuracy = 0.00365579
  estimated relative force accuracy = 1.10093e-05
  using double precision FFTs
  3d grid and FFT values/proc = 5415 1152
Setting up Verlet run ...
  Unit style    : real
  Current step  : 0
  Time step     : 1
Per MPI rank memory allocation (min/avg/max) = 8.658 | 8.663 | 8.666 Mbytes
Step Density Temp Press TotEng 
       0     1.153805    296.19148   -130.50119   -8416.7723 
  100000    1.1342323    291.06808    568.04215   -8389.6338 
  200000    1.1615167    301.50669    238.50115   -8417.0688 
  300000    1.1451395    302.26411   -135.46737   -8394.6903 
  400000    1.1490124    298.70197    541.85479   -8393.5158 
  500000    1.1495751    276.72711    -1069.263   -8503.3526 
  600000    1.1385678    295.96282   -319.33951    -8367.283 
  700000    1.1692199    301.58189   -840.56539   -8415.5039 
  800000    1.1611683    294.51451    661.78172   -8490.9587 
  900000    1.1466465    301.65541    124.66723    -8465.731 
 1000000    1.1493922    301.70669   -140.78009   -8401.9312 
 1100000    1.1571419    305.84699   -252.29447   -8378.1096 
 1200000    1.1372011    289.69222   -488.88782   -8382.1207 
 1300000    1.1429826    293.28165   -1076.3474   -8373.3196 
 1400000    1.1541385    311.87691   -19.900758   -8340.8619 
 1500000    1.1587824    289.56457    761.57571   -8484.8117 
 1600000    1.1564087    303.00493    823.53555   -8357.3115 
 1700000    1.1553294    294.07108   -54.505446   -8398.7471 
 1800000    1.1497852    293.68958   -1187.4236   -8405.7053 
 1900000    1.1442028    304.35013   -1035.6879   -8483.8685 
 2000000    1.1603623    297.41025   -590.08041   -8439.1837 
 2100000    1.1494872    305.46965   -31.113015   -8338.9139 
 2200000    1.1574167    284.90361   -180.70978   -8421.7438 
 2300000    1.1465118    313.26062   -561.49538    -8395.317 
 2400000    1.1348405    283.93653    283.23443   -8362.9597 
 2500000    1.1557591    301.22628   -147.45526   -8351.8107 
 2600000    1.1577724     296.8358   -394.70017   -8455.4414 
 2700000     1.134641    294.89166    -352.1641   -8362.5258 
 2800000     1.153007    296.26813   -10.831798    -8407.509 
 2900000    1.1581093    294.47018    -218.2257   -8439.8426 
 3000000     1.157394    293.14445    726.29173   -8369.0165 
 3100000     1.159077    302.26216   -270.27529   -8391.9151 
 3200000    1.1381958      285.344   -375.01256   -8453.4655 
 3300000    1.1547157    307.61241   -897.23233   -8427.2144 
 3400000    1.1661262    305.02644   -258.36311   -8400.4926 
 3500000    1.1527328    289.78656   -1204.7709   -8400.7986 
 3600000    1.1565451    293.54503   -192.65742   -8401.0359 
 3700000    1.1376684    286.13503   -437.39508   -8380.8414 
 3800000    1.1519093    300.15921   -36.357351   -8432.8062 
 3900000    1.1516859    310.94982    198.23779   -8346.4232 
 4000000    1.1609936    292.41316   -551.67947    -8412.359 
 4100000    1.1366472     295.7456   -446.25578   -8380.7794 
 4200000    1.1432834    296.52544   -731.43378   -8494.3984 
 4300000    1.1550937    306.03725   -9.2365994   -8426.7041 
 4400000    1.1460563    305.27105    -472.6943   -8384.2753 
 4500000    1.1501851    303.11402   -735.95526   -8389.3241 
 4600000    1.1510382    291.65441   -346.93715   -8421.5018 
 4700000    1.1488678    295.38128   -59.940105   -8369.3246 
 4800000    1.1529604    292.86615    913.05427   -8405.4134 
 4900000    1.1652053     292.1739   -353.40994    -8406.627 
 5000000    1.1243649    303.70013   -1023.9479   -8430.8178 
Loop time of 22549.4 on 12 procs for 5000000 steps with 1572 atoms

Performance: 19.158 ns/day, 1.253 hours/ns, 221.736 timesteps/s
93.5% CPU use with 12 MPI tasks x no OpenMP threads

MPI task timing breakdown:
Section |  min time  |  avg time  |  max time  |%varavg| %total
---------------------------------------------------------------
Pair    | 12521      | 13338      | 14304      | 531.7 | 59.15
Bond    | 3.1413     | 3.4831     | 4.4761     |  21.4 |  0.02
Kspace  | 4432.9     | 5394.4     | 6210.5     | 837.0 | 23.92
Neigh   | 411.7      | 412.35     | 412.87     |   1.9 |  1.83
Comm    | 692.99     | 702.01     | 711.99     |  18.1 |  3.11
Output  | 0.22675    | 0.22726    | 0.23236    |   0.3 |  0.00
Modify  | 2464.1     | 2586.7     | 2610.3     |  74.6 | 11.47
Other   |            | 111.9      |            |       |  0.50

Nlocal:    131 ave 150 max 115 min
Histogram: 1 0 3 1 3 0 2 1 0 1
Nghost:    4134.08 ave 4192 max 4081 min
Histogram: 2 0 1 1 4 0 1 1 1 1
Neighs:    46510.6 ave 56422 max 40409 min
Histogram: 2 1 4 0 1 1 2 0 0 1

Total # of neighbors = 558127
Ave neighs/atom = 355.043
Ave special neighs/atom = 1.9084
Neighbor list builds = 203632
Dangerous builds = 0
Changing box ...
  orthogonal box = (0.000781806 0.000781806 0.000781806) to (25.6322 25.8475 25.8475)
  orthogonal box = (0.000781806 0.000781806 0.000781806) to (25.6322 25.6322 25.8475)
  orthogonal box = (0.000781806 0.000781806 0.000781806) to (25.6322 25.6322 25.6322)
PPPM initialization ...
  extracting TIP4P info from pair style
  using 12-bit tables for long-range coulomb (../kspace.cpp:321)
  G vector (1/distance) = 0.310405
  grid = 24 24 24
  stencil order = 5
  estimated absolute RMS force accuracy = 0.00365854
  estimated relative force accuracy = 1.10176e-05
  using double precision FFTs
  3d grid and FFT values/proc = 5415 1152
Setting up Verlet run ...
  Unit style    : real
  Current step  : 5000000
  Time step     : 0.001
Per MPI rank memory allocation (min/avg/max) = 8.658 | 8.663 | 8.666 Mbytes
Step Density Temp Press TotEng 
 5000000    1.1529313    303.70013   -33577.965   -8191.3052 
 5010000    1.1529313    314.99937    3503.2874   -8366.3687 
Loop time of 31.0798 on 12 procs for 10000 steps with 1572 atoms

Performance: 0.028 ns/day, 863.328 hours/ns, 321.752 timesteps/s
91.5% CPU use with 12 MPI tasks x no OpenMP threads

MPI task timing breakdown:
Section |  min time  |  avg time  |  max time  |%varavg| %total
---------------------------------------------------------------
Pair    | 16.097     | 18.245     | 21.625     |  38.3 | 58.71
Bond    | 0.0035707  | 0.0041415  | 0.0047152  |   0.6 |  0.01
Kspace  | 7.0191     | 10.316     | 12.384     |  50.0 | 33.19
Neigh   | 0          | 0          | 0          |   0.0 |  0.00
Comm    | 1.219      | 1.2875     | 1.3585     |   3.5 |  4.14
Output  | 6.1646e-05 | 7.6668e-05 | 0.00022626 |   0.0 |  0.00
Modify  | 1.036      | 1.0574     | 1.0726     |   1.0 |  3.40
Other   |            | 0.169      |            |       |  0.54

Nlocal:    131 ave 147 max 114 min
Histogram: 1 1 0 3 0 2 3 0 1 1
Nghost:    4193.58 ave 4272 max 4127 min
Histogram: 1 1 1 2 2 2 1 0 1 1
Neighs:    47715.8 ave 57498 max 41750 min
Histogram: 2 1 4 0 1 0 3 0 0 1

Total # of neighbors = 572590
Ave neighs/atom = 364.243
Ave special neighs/atom = 1.9084
Neighbor list builds = 0
Dangerous builds = 0
PPPM initialization ...
  extracting TIP4P info from pair style
  using 12-bit tables for long-range coulomb (../kspace.cpp:321)
  G vector (1/distance) = 0.310405
  grid = 24 24 24
  stencil order = 5
  estimated absolute RMS force accuracy = 0.00365854
  estimated relative force accuracy = 1.10176e-05
  using double precision FFTs
  3d grid and FFT values/proc = 5415 1152
Setting up Verlet run ...
  Unit style    : real
  Current step  : 5010000
  Time step     : 0.01
Per MPI rank memory allocation (min/avg/max) = 8.658 | 8.663 | 8.666 Mbytes
Step Density Temp Press TotEng 
 5010000    1.1529313    314.99937    3503.2947   -8366.3687 
 5020000    1.1529313    296.51583    762.54635   -8491.1925 
Loop time of 31.1461 on 12 procs for 10000 steps with 1572 atoms

Performance: 0.277 ns/day, 86.517 hours/ns, 321.068 timesteps/s
91.7% CPU use with 12 MPI tasks x no OpenMP threads

MPI task timing breakdown:
Section |  min time  |  avg time  |  max time  |%varavg| %total
---------------------------------------------------------------
Pair    | 15.985     | 18.254     | 21.44      |  35.9 | 58.61
Bond    | 0.0036574  | 0.0042316  | 0.0050782  |   0.6 |  0.01
Kspace  | 7.2309     | 10.322     | 12.54      |  46.8 | 33.14
Neigh   | 0.0062607  | 0.0062704  | 0.006278   |   0.0 |  0.02
Comm    | 1.2409     | 1.3318     | 1.3813     |   3.8 |  4.28
Output  | 6.4567e-05 | 8.0169e-05 | 0.00023371 |   0.0 |  0.00
Modify  | 1.0513     | 1.0641     | 1.071      |   0.7 |  3.42
Other   |            | 0.1642     |            |       |  0.53

Nlocal:    131 ave 149 max 113 min
Histogram: 1 0 1 1 4 1 2 1 0 1
Nghost:    4217.42 ave 4278 max 4166 min
Histogram: 2 1 1 1 2 2 0 0 1 2
Neighs:    47710.6 ave 57563 max 41223 min
Histogram: 1 1 3 1 1 4 0 0 0 1

Total # of neighbors = 572527
Ave neighs/atom = 364.203
Ave special neighs/atom = 1.9084
Neighbor list builds = 3
Dangerous builds = 0
PPPM initialization ...
  extracting TIP4P info from pair style
  using 12-bit tables for long-range coulomb (../kspace.cpp:321)
  G vector (1/distance) = 0.310405
  grid = 24 24 24
  stencil order = 5
  estimated absolute RMS force accuracy = 0.00365854
  estimated relative force accuracy = 1.10176e-05
  using double precision FFTs
  3d grid and FFT values/proc = 5415 1152
Setting up Verlet run ...
  Unit style    : real
  Current step  : 5020000
  Time step     : 0.1
Per MPI rank memory allocation (min/avg/max) = 8.658 | 8.663 | 8.666 Mbytes
Step Density Temp Press TotEng 
 5020000    1.1529313    296.51583     762.1743   -8491.1925 
 5030000    1.1529313    295.38368   -13.727169   -8378.4812 
Loop time of 30.6395 on 12 procs for 10000 steps with 1572 atoms

Performance: 2.820 ns/day, 8.511 hours/ns, 326.376 timesteps/s
92.9% CPU use with 12 MPI tasks x no OpenMP threads

MPI task timing breakdown:
Section |  min time  |  avg time  |  max time  |%varavg| %total
---------------------------------------------------------------
Pair    | 16.708     | 18.344     | 20.479     |  30.7 | 59.87
Bond    | 0.0035266  | 0.0042241  | 0.0051406  |   0.7 |  0.01
Kspace  | 7.534      | 9.649      | 11.224     |  41.9 | 31.49
Neigh   | 0.080281   | 0.080433   | 0.080521   |   0.0 |  0.26
Comm    | 1.3184     | 1.3467     | 1.4031     |   1.9 |  4.40
Output  | 5.9485e-05 | 7.4246e-05 | 0.00021918 |   0.0 |  0.00
Modify  | 1.0426     | 1.0511     | 1.0568     |   0.5 |  3.43
Other   |            | 0.1645     |            |       |  0.54

Nlocal:    131 ave 145 max 120 min
Histogram: 1 2 0 2 2 2 1 1 0 1
Nghost:    4199.5 ave 4229 max 4163 min
Histogram: 1 0 1 2 0 3 1 2 1 1
Neighs:    47722.8 ave 55861 max 43373 min
Histogram: 4 2 0 1 0 2 1 1 0 1

Total # of neighbors = 572673
Ave neighs/atom = 364.296
Ave special neighs/atom = 1.9084
Neighbor list builds = 40
Dangerous builds = 0
PPPM initialization ...
  extracting TIP4P info from pair style
  using 12-bit tables for long-range coulomb (../kspace.cpp:321)
  G vector (1/distance) = 0.310405
  grid = 24 24 24
  stencil order = 5
  estimated absolute RMS force accuracy = 0.00365854
  estimated relative force accuracy = 1.10176e-05
  using double precision FFTs
  3d grid and FFT values/proc = 5415 1152
Setting up Verlet run ...
  Unit style    : real
  Current step  : 5030000
  Time step     : 0.2
Per MPI rank memory allocation (min/avg/max) = 8.658 | 8.663 | 8.666 Mbytes
Step Density Temp Press TotEng 
 5030000    1.1529313    295.38368   -13.208264   -8378.4812 
 5040000    1.1529313    302.06939   -479.97726   -8433.2063 
Loop time of 30.4483 on 12 procs for 10000 steps with 1572 atoms

Performance: 5.675 ns/day, 4.229 hours/ns, 328.426 timesteps/s
93.7% CPU use with 12 MPI tasks x no OpenMP threads

MPI task timing breakdown:
Section |  min time  |  avg time  |  max time  |%varavg| %total
---------------------------------------------------------------
Pair    | 17.231     | 18.535     | 20.668     |  21.3 | 60.87
Bond    | 0.0034792  | 0.0042908  | 0.0052754  |   0.8 |  0.01
Kspace  | 7.0825     | 9.2003     | 10.536     |  30.5 | 30.22
Neigh   | 0.15757    | 0.158      | 0.15822    |   0.1 |  0.52
Comm    | 1.2968     | 1.333      | 1.3621     |   1.7 |  4.38
Output  | 6.2078e-05 | 7.7943e-05 | 0.00023785 |   0.0 |  0.00
Modify  | 1.0436     | 1.0523     | 1.0631     |   0.6 |  3.46
Other   |            | 0.1658     |            |       |  0.54

Nlocal:    131 ave 142 max 119 min
Histogram: 1 1 1 1 3 0 2 1 0 2
Nghost:    4185.75 ave 4230 max 4119 min
Histogram: 1 0 1 0 2 1 4 0 0 3
Neighs:    47733.8 ave 52554 max 43980 min
Histogram: 1 1 2 2 2 1 1 1 0 1

Total # of neighbors = 572806
Ave neighs/atom = 364.38
Ave special neighs/atom = 1.9084
Neighbor list builds = 81
Dangerous builds = 0
PPPM initialization ...
  extracting TIP4P info from pair style
  using 12-bit tables for long-range coulomb (../kspace.cpp:321)
  G vector (1/distance) = 0.310405
  grid = 24 24 24
  stencil order = 5
  estimated absolute RMS force accuracy = 0.00365854
  estimated relative force accuracy = 1.10176e-05
  using double precision FFTs
  3d grid and FFT values/proc = 5415 1152
Setting up Verlet run ...
  Unit style    : real
  Current step  : 5040000
  Time step     : 0.5
Per MPI rank memory allocation (min/avg/max) = 8.658 | 8.663 | 8.666 Mbytes
Step Density Temp Press TotEng 
 5040000    1.1529313    302.06939    -479.7646   -8433.2063 
 5050000    1.1529313     300.2188   -272.67144   -8331.6604 
Loop time of 30.9133 on 12 procs for 10000 steps with 1572 atoms

Performance: 13.975 ns/day, 1.717 hours/ns, 323.485 timesteps/s
93.4% CPU use with 12 MPI tasks x no OpenMP threads

MPI task timing breakdown:
Section |  min time  |  avg time  |  max time  |%varavg| %total
---------------------------------------------------------------
Pair    | 16.831     | 18.599     | 20.732     |  23.5 | 60.17
Bond    | 0.0034995  | 0.004162   | 0.0052584  |   0.8 |  0.01
Kspace  | 7.1552     | 9.2878     | 11.031     |  33.0 | 30.04
Neigh   | 0.40205    | 0.4031     | 0.40375    |   0.1 |  1.30
Comm    | 1.3221     | 1.3717     | 1.4134     |   2.0 |  4.44
Output  | 6.0752e-05 | 7.7481e-05 | 0.00023551 |   0.0 |  0.00
Modify  | 1.069      | 1.0798     | 1.0892     |   0.6 |  3.49
Other   |            | 0.1673     |            |       |  0.54

Nlocal:    131 ave 143 max 118 min
Histogram: 1 1 0 1 4 0 2 0 1 2
Nghost:    4213.17 ave 4242 max 4151 min
Histogram: 1 0 0 1 1 0 1 4 1 3
Neighs:    47702.2 ave 52001 max 41445 min
Histogram: 1 0 1 0 0 4 2 2 0 2

Total # of neighbors = 572427
Ave neighs/atom = 364.139
Ave special neighs/atom = 1.9084
Neighbor list builds = 202
Dangerous builds = 0
PPPM initialization ...
  extracting TIP4P info from pair style
  using 12-bit tables for long-range coulomb (../kspace.cpp:321)
  G vector (1/distance) = 0.310405
  grid = 24 24 24
  stencil order = 5
  estimated absolute RMS force accuracy = 0.00365854
  estimated relative force accuracy = 1.10176e-05
  using double precision FFTs
  3d grid and FFT values/proc = 5415 1152
Setting up Verlet run ...
  Unit style    : real
  Current step  : 5050000
  Time step     : 1
Per MPI rank memory allocation (min/avg/max) = 8.658 | 8.663 | 8.666 Mbytes
Step Density Temp Press TotEng 
 5050000    1.1529313     300.2188   -275.43447   -8331.6604 
 5100000    1.1529313     304.8103   -0.8029606   -8359.3853 
 5200000    1.1529313    313.34104    339.23672   -8359.3421 
 5300000    1.1529313    294.48869    151.06642   -8467.1566 
 5400000    1.1529313    294.11059    554.92782   -8447.6289 
 5500000    1.1529313    291.17328    580.38608   -8451.6822 
 5600000    1.1529313    291.62435   -10.028409   -8387.9567 
 5700000    1.1529313    311.01342    377.87716   -8327.8586 
 5800000    1.1529313     294.7449    64.417875   -8383.0341 
 5900000    1.1529313    296.78389    972.19217   -8425.7959 
 6000000    1.1529313    294.80442     -539.478   -8382.3022 
 6100000    1.1529313    295.99158   -446.35519   -8399.9664 
 6200000    1.1529313     310.1163    372.68048   -8364.7555 
 6300000    1.1529313    301.40941    137.13124   -8398.4622 
 6400000    1.1529313     298.0864    841.01116   -8409.9025 
 6500000    1.1529313    300.67298    1345.7847   -8458.1992 
 6600000    1.1529313    302.65929    156.76202   -8391.7187 
 6700000    1.1529313     296.1921    415.65095   -8466.1279 
 6800000    1.1529313    303.01202    654.43597   -8434.9146 
 6900000    1.1529313    301.31062    99.478264   -8359.7102 
 7000000    1.1529313    309.35085   -415.93254   -8304.9443 
 7100000    1.1529313    294.98497   -49.285808   -8430.5342 
 7200000    1.1529313    308.03845   -401.51671    -8333.476 
 7300000    1.1529313    303.23125    46.021253   -8369.1088 
 7400000    1.1529313    280.24373   -781.26881   -8509.4134 
 7500000    1.1529313    312.15722   -868.16325   -8351.2372 
 7550000    1.1529313    290.75687   -6.6247112   -8431.8506 
Loop time of 7938.81 on 12 procs for 2500000 steps with 1572 atoms

Performance: 27.208 ns/day, 0.882 hours/ns, 314.909 timesteps/s
93.4% CPU use with 12 MPI tasks x no OpenMP threads

MPI task timing breakdown:
Section |  min time  |  avg time  |  max time  |%varavg| %total
---------------------------------------------------------------
Pair    | 4333.7     | 4703.1     | 4957       | 289.6 | 59.24
Bond    | 0.87403    | 1.0723     | 1.252      |  11.1 |  0.01
Kspace  | 2102.6     | 2360.6     | 2726.9     | 408.9 | 29.74
Neigh   | 203.23     | 203.63     | 203.88     |   1.5 |  2.57
Comm    | 350.12     | 354.35     | 357.62     |  11.7 |  4.46
Output  | 0.11151    | 0.11179    | 0.11464    |   0.3 |  0.00
Modify  | 271.54     | 274.13     | 276.08     |   8.0 |  3.45
Other   |            | 41.78      |            |       |  0.53

Nlocal:    131 ave 144 max 117 min
Histogram: 1 1 1 0 3 1 0 4 0 1
Nghost:    4221.17 ave 4286 max 4145 min
Histogram: 2 0 2 0 2 1 0 1 1 3
Neighs:    47714.8 ave 55026 max 39778 min
Histogram: 1 0 2 1 2 2 0 1 2 1

Total # of neighbors = 572577
Ave neighs/atom = 364.235
Ave special neighs/atom = 1.9084
Neighbor list builds = 100669
Dangerous builds = 0
PPPM initialization ...
  extracting TIP4P info from pair style
  using 12-bit tables for long-range coulomb (../kspace.cpp:321)
  G vector (1/distance) = 0.310405
  grid = 24 24 24
  stencil order = 5
  estimated absolute RMS force accuracy = 0.00365854
  estimated relative force accuracy = 1.10176e-05
  using double precision FFTs
  3d grid and FFT values/proc = 5415 1152
Setting up Verlet run ...
  Unit style    : real
  Current step  : 0
  Time step     : 1
Per MPI rank memory allocation (min/avg/max) = 14.31 | 14.31 | 14.32 Mbytes
Step Density Temp Press TotEng 
       0    1.1529313    290.75687   -6.5740669   -8431.8506 
  100000    1.1529313    302.31039    45.781922   -8354.0919 
  200000    1.1529313    295.53036   -59.465688   -8453.6295 
  250000    1.1529313    292.89911    227.25771   -8371.5752 
Loop time of 1249.64 on 12 procs for 250000 steps with 1572 atoms

Performance: 17.285 ns/day, 1.388 hours/ns, 200.058 timesteps/s
93.2% CPU use with 12 MPI tasks x no OpenMP threads

MPI task timing breakdown:
Section |  min time  |  avg time  |  max time  |%varavg| %total
---------------------------------------------------------------
Pair    | 692.28     | 757.54     | 819.3      | 147.8 | 60.62
Bond    | 3.3218     | 3.3847     | 3.464      |   2.2 |  0.27
Kspace  | 293.45     | 355.55     | 421.05     | 216.4 | 28.45
Neigh   | 20.446     | 20.472     | 20.502     |   0.4 |  1.64
Comm    | 36.167     | 36.533     | 37.014     |   3.4 |  2.92
Output  | 0.069742   | 0.070043   | 0.070792   |   0.1 |  0.01
Modify  | 71.055     | 71.265     | 71.385     |   1.1 |  5.70
Other   |            | 4.833      |            |       |  0.39

Nlocal:    131 ave 142 max 116 min
Histogram: 1 0 0 3 3 0 1 0 1 3
Nghost:    4180.33 ave 4224 max 4120 min
Histogram: 1 0 2 2 0 0 2 0 4 1
Neighs:    47733.7 ave 55722 max 40937 min
Histogram: 1 0 1 3 5 0 0 0 1 1

Total # of neighbors = 572804
Ave neighs/atom = 364.379
Ave special neighs/atom = 1.9084
Neighbor list builds = 10064
Dangerous builds = 0
PPPM initialization ...
  extracting TIP4P info from pair style
  using 12-bit tables for long-range coulomb (../kspace.cpp:321)
  G vector (1/distance) = 0.310405
  grid = 24 24 24
  stencil order = 5
  estimated absolute RMS force accuracy = 0.00365854
  estimated relative force accuracy = 1.10176e-05
  using double precision FFTs
  3d grid and FFT values/proc = 5415 1152
Setting up Verlet run ...
  Unit style    : real
  Current step  : 250000
  Time step     : 1
Per MPI rank memory allocation (min/avg/max) = 14.31 | 14.31 | 14.32 Mbytes
Step Density Temp Press TotEng 
  250000    1.1529313    292.89911    227.19331   -8371.5752 
  300000    1.1529313    300.43604   -566.20432   -8420.4377 
  400000    1.1529313    307.54095    809.48982   -8369.9188 
  500000    1.1529313    301.91998    200.05402   -8335.7204 
Loop time of 1236.83 on 12 procs for 250000 steps with 1572 atoms

Performance: 17.464 ns/day, 1.374 hours/ns, 202.129 timesteps/s
93.8% CPU use with 12 MPI tasks x no OpenMP threads

MPI task timing breakdown:
Section |  min time  |  avg time  |  max time  |%varavg| %total
---------------------------------------------------------------
Pair    | 695.97     | 757.54     | 807.98     | 109.6 | 61.25
Bond    | 3.3459     | 3.4156     | 3.5117     |   2.3 |  0.28
Kspace  | 291.98     | 342.81     | 404.65     | 163.4 | 27.72
Neigh   | 20.313     | 20.344     | 20.371     |   0.4 |  1.64
Comm    | 36.244     | 36.598     | 37.019     |   3.0 |  2.96
Output  | 0.1014     | 0.10175    | 0.10208    |   0.1 |  0.01
Modify  | 71.011     | 71.213     | 71.342     |   1.1 |  5.76
Other   |            | 4.812      |            |       |  0.39

Nlocal:    131 ave 141 max 109 min
Histogram: 1 0 0 1 0 2 0 2 3 3
Nghost:    4211.25 ave 4263 max 4153 min
Histogram: 2 1 0 1 0 2 2 1 2 1
Neighs:    47685.4 ave 53626 max 41331 min
Histogram: 1 0 1 2 3 1 0 2 1 1

Total # of neighbors = 572225
Ave neighs/atom = 364.011
Ave special neighs/atom = 1.9084
Neighbor list builds = 10072
Dangerous builds = 0
PPPM initialization ...
  extracting TIP4P info from pair style
  using 12-bit tables for long-range coulomb (../kspace.cpp:321)
  G vector (1/distance) = 0.310405
  grid = 24 24 24
  stencil order = 5
  estimated absolute RMS force accuracy = 0.00365854
  estimated relative force accuracy = 1.10176e-05
  using double precision FFTs
  3d grid and FFT values/proc = 5415 1152
Setting up Verlet run ...
  Unit style    : real
  Current step  : 500000
  Time step     : 1
Per MPI rank memory allocation (min/avg/max) = 14.31 | 14.31 | 14.32 Mbytes
Step Density Temp Press TotEng 
  500000    1.1529313    301.91998    200.41583   -8335.7204 
  600000    1.1529313    291.84242    267.98923   -8392.0436 
  700000    1.1529313    300.34834   -486.74759   -8453.6622 
  750000    1.1529313    284.64296   -371.86003   -8435.9359 
Loop time of 1237.7 on 12 procs for 250000 steps with 1572 atoms

Performance: 17.452 ns/day, 1.375 hours/ns, 201.988 timesteps/s
93.7% CPU use with 12 MPI tasks x no OpenMP threads

MPI task timing breakdown:
Section |  min time  |  avg time  |  max time  |%varavg| %total
---------------------------------------------------------------
Pair    | 698.52     | 757.01     | 797.66     | 125.4 | 61.16
Bond    | 3.3258     | 3.3889     | 3.4927     |   2.5 |  0.27
Kspace  | 303.51     | 344.19     | 402.63     | 186.4 | 27.81
Neigh   | 20.298     | 20.336     | 20.363     |   0.5 |  1.64
Comm    | 36.215     | 36.605     | 37.047     |   3.2 |  2.96
Output  | 0.067854   | 0.0682     | 0.06876    |   0.1 |  0.01
Modify  | 71.092     | 71.284     | 71.421     |   1.0 |  5.76
Other   |            | 4.823      |            |       |  0.39

Nlocal:    131 ave 142 max 121 min
Histogram: 1 1 1 1 3 2 1 1 0 1
Nghost:    4209.5 ave 4253 max 4156 min
Histogram: 1 1 2 0 0 0 2 5 0 1
Neighs:    47702.4 ave 51864 max 42881 min
Histogram: 2 0 1 1 1 0 3 2 1 1

Total # of neighbors = 572429
Ave neighs/atom = 364.141
Ave special neighs/atom = 1.9084
Neighbor list builds = 10083
Dangerous builds = 0
PPPM initialization ...
  extracting TIP4P info from pair style
  using 12-bit tables for long-range coulomb (../kspace.cpp:321)
  G vector (1/distance) = 0.310405
  grid = 24 24 24
  stencil order = 5
  estimated absolute RMS force accuracy = 0.00365854
  estimated relative force accuracy = 1.10176e-05
  using double precision FFTs
  3d grid and FFT values/proc = 5415 1152
Setting up Verlet run ...
  Unit style    : real
  Current step  : 750000
  Time step     : 1
Per MPI rank memory allocation (min/avg/max) = 14.31 | 14.31 | 14.32 Mbytes
Step Density Temp Press TotEng 
  750000    1.1529313    284.64296   -371.99216   -8435.9359 
  800000    1.1529313    289.89417   -903.26548   -8359.4321 
  900000    1.1529313    299.93813   -289.20835   -8387.8758 
 1000000    1.1529313    304.01638   -433.18939   -8395.4415 
Loop time of 1244.93 on 12 procs for 250000 steps with 1572 atoms

Performance: 17.350 ns/day, 1.383 hours/ns, 200.815 timesteps/s
93.4% CPU use with 12 MPI tasks x no OpenMP threads

MPI task timing breakdown:
Section |  min time  |  avg time  |  max time  |%varavg| %total
---------------------------------------------------------------
Pair    | 699.92     | 757.77     | 801.54     | 138.8 | 60.87
Bond    | 3.3341     | 3.3944     | 3.4806     |   2.3 |  0.27
Kspace  | 306.8      | 350.5      | 408.6      | 204.5 | 28.15
Neigh   | 20.422     | 20.455     | 20.487     |   0.4 |  1.64
Comm    | 36.188     | 36.594     | 37.051     |   3.4 |  2.94
Output  | 0.10162    | 0.10185    | 0.10243    |   0.1 |  0.01
Modify  | 71.093     | 71.285     | 71.407     |   1.0 |  5.73
Other   |            | 4.826      |            |       |  0.39

Nlocal:    131 ave 144 max 120 min
Histogram: 1 3 0 2 1 1 1 1 0 2
Nghost:    4224.42 ave 4307 max 4141 min
Histogram: 1 1 2 0 2 2 0 1 2 1
Neighs:    47717.8 ave 53753 max 40679 min
Histogram: 1 0 2 2 0 2 1 1 2 1

Total # of neighbors = 572613
Ave neighs/atom = 364.258
Ave special neighs/atom = 1.9084
Neighbor list builds = 10093
Dangerous builds = 0
PPPM initialization ...
  extracting TIP4P info from pair style
  using 12-bit tables for long-range coulomb (../kspace.cpp:321)
  G vector (1/distance) = 0.310405
  grid = 24 24 24
  stencil order = 5
  estimated absolute RMS force accuracy = 0.00365854
  estimated relative force accuracy = 1.10176e-05
  using double precision FFTs
  3d grid and FFT values/proc = 5415 1152
Setting up Verlet run ...
  Unit style    : real
  Current step  : 1000000
  Time step     : 1
Per MPI rank memory allocation (min/avg/max) = 14.31 | 14.31 | 14.32 Mbytes
Step Density Temp Press TotEng 
 1000000    1.1529313    304.01638   -433.29024   -8395.4415 
 1100000    1.1529313    292.57598   -218.59675   -8416.3332 
 1200000    1.1529313     291.6437   -1147.3498   -8414.2983 
 1250000    1.1529313    298.36771    132.73406   -8395.3549 
Loop time of 1248.16 on 12 procs for 250000 steps with 1572 atoms

Performance: 17.306 ns/day, 1.387 hours/ns, 200.295 timesteps/s
93.3% CPU use with 12 MPI tasks x no OpenMP threads

MPI task timing breakdown:
Section |  min time  |  avg time  |  max time  |%varavg| %total
---------------------------------------------------------------
Pair    | 696.29     | 757.97     | 814.35     | 152.1 | 60.73
Bond    | 3.314      | 3.3714     | 3.4365     |   2.1 |  0.27
Kspace  | 297.54     | 353.84     | 415.41     | 223.0 | 28.35
Neigh   | 20.421     | 20.46      | 20.482     |   0.5 |  1.64
Comm    | 36.106     | 36.501     | 36.918     |   3.4 |  2.92
Output  | 0.06771    | 0.068179   | 0.068844   |   0.1 |  0.01
Modify  | 70.918     | 71.137     | 71.236     |   1.0 |  5.70
Other   |            | 4.813      |            |       |  0.39

Nlocal:    131 ave 142 max 121 min
Histogram: 3 0 1 0 2 2 1 1 0 2
Nghost:    4196.08 ave 4255 max 4146 min
Histogram: 1 1 3 1 1 1 1 1 0 2
Neighs:    47718.4 ave 54252 max 41184 min
Histogram: 1 0 1 3 1 3 1 0 0 2

Total # of neighbors = 572621
Ave neighs/atom = 364.263
Ave special neighs/atom = 1.9084
Neighbor list builds = 10069
Dangerous builds = 0
PPPM initialization ...
  extracting TIP4P info from pair style
  using 12-bit tables for long-range coulomb (../kspace.cpp:321)
  G vector (1/distance) = 0.310405
  grid = 24 24 24
  stencil order = 5
  estimated absolute RMS force accuracy = 0.00365854
  estimated relative force accuracy = 1.10176e-05
  using double precision FFTs
  3d grid and FFT values/proc = 5415 1152
Setting up Verlet run ...
  Unit style    : real
  Current step  : 1250000
  Time step     : 1
Per MPI rank memory allocation (min/avg/max) = 14.31 | 14.31 | 14.32 Mbytes
Step Density Temp Press TotEng 
 1250000    1.1529313    298.36771    132.90395   -8395.3549 
 1300000    1.1529313    292.00013   -172.39065   -8415.0831 
 1400000    1.1529313    291.60332   -778.44441   -8399.8873 
 1500000    1.1529313    304.95109    583.32168   -8449.3655 
Loop time of 1245.97 on 12 procs for 250000 steps with 1572 atoms

Performance: 17.336 ns/day, 1.384 hours/ns, 200.647 timesteps/s
93.4% CPU use with 12 MPI tasks x no OpenMP threads

MPI task timing breakdown:
Section |  min time  |  avg time  |  max time  |%varavg| %total
---------------------------------------------------------------
Pair    | 702.35     | 758.91     | 819.27     | 133.7 | 60.91
Bond    | 3.3355     | 3.3999     | 3.469      |   2.3 |  0.27
Kspace  | 290.17     | 350.44     | 407.26     | 197.3 | 28.13
Neigh   | 20.363     | 20.395     | 20.424     |   0.4 |  1.64
Comm    | 36.196     | 36.563     | 37.056     |   3.4 |  2.93
Output  | 0.10151    | 0.10186    | 0.10233    |   0.1 |  0.01
Modify  | 71.142     | 71.343     | 71.472     |   1.0 |  5.73
Other   |            | 4.821      |            |       |  0.39

Nlocal:    131 ave 137 max 122 min
Histogram: 2 0 1 0 1 0 2 1 3 2
Nghost:    4225.42 ave 4264 max 4175 min
Histogram: 2 1 1 0 0 1 1 3 0 3
Neighs:    47710.4 ave 51268 max 43727 min
Histogram: 1 1 1 2 0 1 3 0 1 2

Total # of neighbors = 572525
Ave neighs/atom = 364.202
Ave special neighs/atom = 1.9084
Neighbor list builds = 10067
Dangerous builds = 0
