1572
Atoms. Timestep: 0
Ow 4.85149 24.6578 15.9417
H 4.01075 24.22 16.0748
H 5.47595 23.944 15.8124
Ow 14.5997 11.2528 13.2806
H 14.2278 12.0157 12.838
H 13.8878 10.6131 13.2951
Ow 17.1271 19.601 6.74962
H 16.4847 20.0058 6.1667
H 16.7425 19.6804 7.62258
Ow 13.3343 0.121415 5.62785
H 12.7616 0.488535 6.30125
H 12.9427 0.401872 4.80071
Ow 19.1965 21.1823 0.589514
H 18.3236 21.2067 0.197426
H 19.0471 20.8942 1.49002
Ow 6.37725 18.6248 14.041
H 7.087 18.4497 14.6589
H 5.6406 18.8915 14.591
Ow 16.852 11.1605 7.58089
H 17.8043 11.1672 7.67804
H 16.5219 11.4455 8.43292
Ow 11.5215 13.5863 9.92917
H 11.5421 12.947 9.21702
H 12.1049 13.2225 10.5951
Ow 15.984 8.04279 13.8262
H 15.9167 8.46474 12.9696
H 15.3758 7.30519 13.7788
Ow 1.59553 7.97919 13.4177
H 0.750807 7.56948 13.6042
H 2.04943 7.34917 12.858
Ow 18.0324 10.8608 21.0025
H 17.4123 10.5941 20.3238
H 17.4841 11.0804 21.7557
Ow 18.0244 15.7504 12.7716
H 18.2792 14.8302 12.7039
H 18.0064 15.9258 13.7124
Ow 2.56684 24.5726 20.1142
H 3.31112 25.0705 20.4525
H 2.93856 23.7278 19.8605
Ow 24.4659 14.1649 22.7779
H 24.0001 14.3075 23.6018
H 24.5091 15.0314 22.3735
Ow 15.9161 13.6921 19.7427
H 16.8108 13.4129 19.548
H 15.3629 13.0232 19.3392
Ow 16.0214 3.24307 16.3051
H 15.6886 2.9384 17.1493
H 16.7905 2.69791 16.1394
Ow 8.43236 17.319 6.37412
H 9.24903 17.744 6.63613
H 8.70976 16.5749 5.83959
Ow 10.2694 7.5565 21.0013
H 10.9917 7.03017 20.6585
H 9.48602 7.03867 20.8158
Ow 0.164014 23.3312 11.3067
H 0.733973 23.6186 12.02
H 0.134597 22.3783 11.392
Ow 2.18544 6.66641 0.694412
H 2.71362 7.45745 0.5871
H 2.67408 5.98676 0.230162
Ow 6.86675 15.75 0.403301
H 6.47231 16.3239 1.06002
H 6.45196 14.8995 0.547631
Ow 7.91533 17.4745 3.1126
H 7.60286 16.6475 3.4795
H 8.48449 17.8382 3.79088
Ow 11.6989 0.953367 16.6026
H 12.5175 0.721968 16.1638
H 11.4117 0.140659 17.0189
Ow 16.1903 4.1644 24.2905
H 16.1141 4.37621 23.3601
H 16.635 4.92073 24.6732
Ow 1.05271 22.3545 18.2027
H 1.35532 22.9505 17.5175
H 0.221252 22.7277 18.4953
Ow 19.9665 23.2357 12.9957
H 20.8812 23.1872 13.2734
H 19.7544 24.1684 13.0299
Ow 2.62194 11.4168 1.60119
H 2.36848 10.9379 2.39026
H 3.06768 10.7664 1.0585
Ow 3.09334 23.7797 9.86774
H 2.38474 24.3414 9.55372
H 2.84568 23.5605 10.766
Ow 7.73881 2.90258 24.2472
H 8.19479 3.71623 24.4623
H 7.67329 2.9095 23.2922
Ow 21.1398 5.83158 9.69293
H 20.3241 6.23171 9.99405
H 21.4578 5.33712 10.4484
Ow 18.3678 18.5542 19.7126
H 17.5195 18.8185 20.0685
H 18.8028 18.105 20.4373
Ow 23.1271 22.2303 24.3667
H 23.3337 21.3596 24.7063
H 22.3924 22.5289 24.9027
Ow 20.837 6.29011 22.8228
H 20.6065 5.41759 22.5038
H 21.6921 6.47029 22.4323
Ow 1.32555 8.44213 19.746
H 1.73695 7.73059 20.2366
H 0.406246 8.18493 19.6756
Ow 17.9555 22.6342 21.7582
H 18.3022 21.7467 21.8499
H 18.2658 22.9256 20.9009
Ow 6.93728 22.4017 16.0554
H 7.10684 22.8876 15.2483
H 7.79545 22.0717 16.3217
Ow 12.3328 22.5994 17.5752
H 13.1589 22.7222 18.0429
H 12.5846 22.5464 16.6532
Ow 16.0494 23.3338 23.6668
H 16.0446 24.2863 23.7617
H 16.7021 23.1636 22.9877
Ow 1.43418 10.7459 12.7228
H 0.853481 11.2843 12.1851
H 0.890311 10.0081 12.9986
Ow 19.5162 20.9906 8.08903
H 20.4375 20.8648 7.8619
H 19.0468 20.8692 7.26369
Ow 5.19987 3.24442 15.0242
H 4.53587 2.69624 14.6061
H 6.02417 2.78312 14.8694
Ow 19.8215 3.75271 5.54242
H 18.9006 3.92447 5.73894
H 19.8723 3.7809 4.58699
Ow 7.21363 24.7635 18.3996
H 6.51767 24.657 17.7511
H 7.22932 25.7029 18.5827
Ow 8.14478 11.3768 4.88175
H 8.57461 10.8265 5.53644
H 7.92462 12.1812 5.35158
Ow 15.1097 20.2936 5.18663
H 15.0083 20.1617 4.244
H 14.2837 19.9885 5.56188
Ow 5.9261 7.99984 3.90571
H 5.41112 7.21328 4.08561
H 5.38652 8.50632 3.29862
Ow 13.7142 22.9836 11.8512
H 13.5661 22.6651 12.7416
H 12.992 23.5909 11.6903
Ow 11.7801 10.3948 3.29483
H 11.6382 11.3149 3.51719
H 11.4146 9.90995 4.03481
Ow 5.64747 24.6245 10.5073
H 4.78133 24.312 10.2459
H 6.06095 24.8984 9.68867
Ow 5.7503 22.8249 19.9541
H 6.07057 23.6751 19.6528
H 5.55484 22.9571 20.8818
Ow 6.63709 10.2338 9.02545
H 6.47539 9.29034 9.02967
H 6.39098 10.5234 9.90397
Ow 5.01539 3.0026 23.7266
H 5.92792 3.17476 23.9587
H 4.91247 3.3874 22.8562
Ow 18.7165 18.1478 9.91247
H 19.3548 18.0111 10.6125
H 17.8853 17.8532 10.2847
Ow 16.1298 14.7324 22.4207
H 16.6676 14.263 23.0583
H 16.2375 14.24 21.607
Ow 10.8339 7.15902 9.50201
H 11.4813 6.75789 8.92214
H 10.068 6.58844 9.43785
Ow 5.53309 21.858 25.2691
H 6.26327 22.2397 24.7818
H 5.78437 21.9488 0.556124
Ow 16.9546 17.1278 4.2795
H 16.0515 16.872 4.09158
H 16.8739 17.9132 4.82071
Ow 1.69687 0.310037 23.1191
H 1.82256 25.3278 23.8423
H 1.01896 25.5389 22.5768
Ow 14.3561 2.22851 0.303149
H 14.9383 1.68274 0.831786
H 14.9227 2.9175 25.5881
Ow 13.1427 6.75005 11.6111
H 12.2936 6.62168 11.1884
H 12.9851 7.43212 12.264
Ow 3.58461 18.5205 15.029
H 3.55705 18.7196 15.9649
H 3.95175 17.6378 14.9821
Ow 20.4096 21.1935 18.5583
H 20.4598 21.1392 17.6039
H 19.8796 20.4386 18.8141
Ow 13.439 17.4632 7.2289
H 13.5295 17.4027 6.27791
H 13.3039 18.3955 7.39832
Ow 23.3441 11.5346 22.8204
H 23.7062 12.4197 22.8625
H 24.0479 10.9718 23.1431
Ow 23.2183 22.7993 7.96219
H 22.8231 21.9399 7.81582
H 23.5728 23.0489 7.10882
Ow 22.3804 11.8046 19.7404
H 22.0217 11.3567 18.9743
H 21.6349 11.9007 20.3331
Ow 15.4094 20.151 2.46228
H 15.4474 20.7025 1.68084
H 16.2998 19.8143 2.56196
Ow 12.2459 16.313 15.8974
H 11.88 16.5578 15.0474
H 11.9672 15.4064 16.0266
Ow 12.7735 9.16466 13.7342
H 12.7879 8.737 14.5905
H 11.8778 9.49007 13.6436
Ow 10.6193 7.8202 24.0911
H 11.41 7.79861 24.6302
H 10.5728 6.94858 23.6983
Ow 21.4954 1.82632 12.9622
H 21.6519 2.04685 13.8804
H 20.6422 1.39244 12.9617
Ow 16.2659 21.2561 12.2758
H 15.461 21.7647 12.1773
H 15.9807 20.4277 12.6613
Ow 12.6871 7.92068 0.670437
H 11.8931 7.40416 0.808412
H 13.0946 7.97008 1.53518
Ow 2.79078 23.4131 12.8855
H 2.91639 22.4652 12.8418
H 2.69598 23.5999 13.8195
Ow 7.78358 8.76421 23.4219
H 8.43222 8.06333 23.4872
H 7.00337 8.33695 23.0684
Ow 18.4185 14.2151 6.43256
H 18.8082 14.21 7.3068
H 18.5243 13.3176 6.11734
Ow 3.05858 11.2425 23.318
H 3.81943 11.7891 23.5145
H 3.18434 10.4562 23.8492
Ow 6.8105 11.9497 17.0298
H 7.00561 12.8778 16.8997
H 6.26687 11.9269 17.8173
Ow 17.1092 7.03767 6.1829
H 17.0067 7.02278 7.13447
H 16.2613 6.74861 5.8456
Ow 15.6734 19.099 20.3126
H 15.3285 18.2428 20.5659
H 15.6114 19.1097 19.3575
Ow 21.7564 17.5356 3.3055
H 21.6659 18.4847 3.39142
H 21.7195 17.3755 2.36252
Ow 13.3521 21.9959 0.145602
H 12.918 21.3076 0.649606
H 12.8152 22.7749 0.291291
Ow 25.5158 6.82869 25.1709
H 0.734562 6.86133 25.6082
H 24.9047 7.20062 0.174686
Ow 10.2317 24.3265 18.0197
H 10.7424 23.5892 17.6854
H 9.68936 24.5982 17.2793
Ow 15.1485 2.28351 5.10405
H 14.727 2.77367 4.39813
H 14.454 1.72845 5.45874
Ow 7.8145 2.18876 3.07143
H 7.099 2.60578 2.59145
H 8.05658 2.82632 3.7431
Ow 23.6332 2.7396 8.23303
H 22.7098 2.95394 8.10068
H 23.7926 2.92583 9.15831
Ow 21.3487 19.6002 25.0653
H 21.2602 19.362 24.1424
H 20.5718 20.127 25.2527
Ow 13.0246 9.56093 6.87168
H 12.187 9.81397 6.48353
H 12.9371 8.62287 7.04084
Ow 20.1211 22.5452 3.88276
H 19.2585 22.7522 4.24235
H 20.7206 23.1312 4.34482
Ow 3.09499 18.3447 5.38464
H 3.67884 19.0931 5.26079
H 2.43766 18.6538 6.00805
Ow 21.2197 15.6895 21.3927
H 20.4384 15.4093 20.9161
H 21.1269 16.6392 21.4683
Ow 9.68457 9.16284 0.710528
H 10.5185 9.62618 0.632888
H 9.66674 8.57288 25.5891
Ow 10.8809 16.1698 7.66389
H 11.5325 16.8629 7.77004
H 10.5487 16.0152 8.54819
Ow 14.337 0.463183 15.8104
H 14.41 0.900809 14.9623
H 14.7163 25.2283 15.6666
Ow 8.29069 14.457 16.7649
H 9.026 13.8764 16.961
H 8.22457 15.0276 17.5306
Ow 16.6661 6.16406 19.3195
H 16.6121 5.31628 19.7606
H 16.1045 6.07043 18.55
Ow 8.18554 4.41801 4.9655
H 7.31601 4.19149 5.29542
H 8.77219 4.25635 5.70438
Ow 11.076 22.1518 7.25604
H 11.8824 21.6925 7.49068
H 11.1553 22.3107 6.31547
Ow 20.0679 12.1484 16.0715
H 20.6732 11.7355 16.6874
H 19.4249 12.5899 16.6263
Ow 14.6314 6.22165 5.15995
H 14.0068 6.81135 5.58228
H 14.1982 5.36813 5.16707
Ow 15.3237 12.2982 2.3913
H 15.3917 11.779 1.59001
H 16.2308 12.475 2.64049
Ow 25.4595 11.204 5.78191
H 24.6221 10.744 5.83982
H 25.2743 12.0824 6.11411
Ow 23.8023 23.1712 3.02215
H 24.2982 23.7832 2.47831
H 23.7448 22.3741 2.49523
Ow 16.2145 17.3642 8.22811
H 15.9544 17.508 9.138
H 15.4073 17.4794 7.72671
Ow 15.0661 6.27508 17.1625
H 14.3613 6.19928 17.8058
H 14.8123 5.67973 16.4573
Ow 15.2091 15.3322 14.6473
H 16.0735 15.7127 14.8032
H 14.8618 15.8227 13.9023
Ow 10.7406 6.07963 1.37055
H 10.9903 5.31067 1.88295
H 9.90347 6.35532 1.74398
Ow 1.74638 10.1085 16.0477
H 1.19518 10.5196 16.7136
H 1.54461 10.5843 15.242
Ow 14.785 16.5269 17.372
H 15.5207 16.0723 17.7822
H 14.6099 16.0285 16.5737
Ow 17.7074 6.33135 25.1394
H 17.4793 6.92419 0.223402
H 18.6456 6.17512 25.2468
Ow 14.4106 23.266 4.30478
H 14.2976 23.9518 4.96296
H 14.5568 22.4679 4.8125
Ow 5.5283 13.444 19.1967
H 4.87486 12.9024 19.6393
H 5.01542 14.0486 18.6603
Ow 21.4956 0.926736 15.7079
H 21.925 0.122419 15.9992
H 20.8763 1.13508 16.4074
Ow 24.7196 12.0776 11.7511
H 24.697 12.9404 11.3373
H 24.8459 12.261 12.682
Ow 11.2039 16.8958 22.5337
H 10.3776 17.295 22.8059
H 11.2303 17.0215 21.5852
Ow 23.9572 25.5883 8.95394
H 23.6654 24.8302 8.44771
H 23.1497 0.413792 9.18803
Ow 14.2265 5.02205 8.98505
H 13.5532 5.36896 8.39972
H 14.4134 4.14739 8.64408
Ow 17.9469 2.15637 25.3636
H 18.5386 1.77749 24.7136
H 17.4983 2.86187 24.8974
Ow 1.6388 17.7699 3.10822
H 2.04083 17.9543 3.9571
H 1.65529 18.6088 2.64758
Ow 17.5622 0.219078 20.8969
H 17.8717 25.3795 21.6702
H 18.1001 25.5154 20.1798
Ow 24.5595 23.5707 5.51054
H 25.4923 23.3562 5.50526
H 24.2595 23.3589 4.62657
Ow 16.3776 21.1261 25.354
H 16.4851 20.2592 24.9625
H 15.9165 21.635 24.6872
Ow 15.7914 23.6144 9.95002
H 15.1854 23.66 10.6895
H 15.4512 24.251 9.32131
Ow 2.43542 16.6908 19.4577
H 2.79519 16.0296 18.8664
H 1.55201 16.8533 19.1269
Ow 5.50876 12.6105 24.0161
H 6.05425 11.846 23.831
H 5.67007 12.8024 24.9399
Ow 13.4967 9.51664 21.9925
H 14.2506 9.43622 21.4082
H 13.1437 8.62894 22.0523
Ow 1.01049 25.5831 9.22308
H 1.19709 0.726047 8.69322
H 25.695 25.4672 9.15335
Ow 15.1661 8.25759 20.381
H 14.5006 7.70838 20.7954
H 15.7732 7.63655 19.9784
Ow 10.9922 2.43233 14.2499
H 11.2081 2.11985 15.1285
H 10.6033 1.67392 13.8142
Ow 12.6758 12.0498 16.0814
H 13.5452 12.2396 15.7288
H 12.1131 11.9837 15.3099
Ow 18.4072 23.7745 10.3203
H 17.4512 23.7296 10.3402
H 18.6268 24.4851 10.9227
Ow 7.21482 12.3299 11.6507
H 7.86118 11.6251 11.6919
H 7.7309 13.1196 11.4888
Ow 4.2548 16.9802 11.8165
H 4.6596 17.3551 12.5986
H 4.05576 16.0759 12.0593
Ow 9.17983 22.4889 5.11676
H 9.01313 21.9466 4.34578
H 9.39024 23.3525 4.76178
Ow 24.6697 6.67452 20.2069
H 24.1163 6.1622 19.6173
H 25.0885 6.02314 20.7695
Ow 4.85756 3.71172 20.9807
H 4.82981 4.53331 20.4904
H 5.77151 3.43202 20.9288
Ow 6.55917 18.9776 7.63125
H 7.08387 18.5509 6.95381
H 7.16646 19.1058 8.35993
Ow 24.5926 19.0082 6.42699
H 24.5412 18.1626 6.87258
H 23.9114 19.5389 6.84008
Ow 19.9304 7.88113 7.48528
H 20.389 8.14594 6.68795
H 19.1171 7.48407 7.17365
Ow 3.95308 10.5467 17.8335
H 3.19495 10.2754 17.316
H 4.49651 9.76101 17.8933
Ow 15.5237 19.0793 17.6681
H 15.2676 18.2096 17.3612
H 16.2815 19.31 17.1307
Ow 13.3758 12.1041 24.0191
H 12.9815 11.82 23.1945
H 12.847 11.6818 24.6961
Ow 2.92563 13.9089 2.78323
H 2.91257 13.0935 2.28213
H 3.31937 13.6689 3.62202
Ow 4.72674 7.82696 16.1324
H 5.19804 7.5296 15.3542
H 5.11368 7.32868 16.8523
Ow 7.8711 5.95794 20.9106
H 7.63407 6.05275 21.8331
H 7.04976 6.08963 20.437
Ow 8.16953 5.92013 17.3191
H 7.77005 6.25246 16.5153
H 7.44804 5.50515 17.7919
Ow 11.0294 12.6095 7.33964
H 10.6936 13.345 6.82724
H 10.2504 12.1053 7.57457
Ow 21.4859 17.4679 17.2636
H 21.5032 16.5952 17.6563
H 20.6792 17.4835 16.7486
Ow 22.3728 25.447 0.732541
H 21.7631 24.7536 0.480148
H 21.9705 0.22044 1.50058
Ow 4.96279 23.6623 22.459
H 4.61401 24.553 22.4253
H 4.55358 23.2734 23.232
Ow 14.7857 22.7272 18.7245
H 15.5218 22.5928 18.1276
H 15.1153 22.4478 19.5786
Ow 20.8809 23.2462 25.6406
H 20.1143 23.5659 25.1648
H 20.5395 22.5572 0.578579
Ow 2.70159 12.8401 15.0663
H 3.04972 13.1848 14.244
H 2.92097 13.5062 15.7177
Ow 24.3924 10.048 9.54907
H 23.6003 10.3463 9.10204
H 24.5803 10.735 10.1885
Ow 4.7172 2.05455 10.9687
H 5.52493 2.56259 10.8933
H 4.03843 2.62899 10.6144
Ow 14.344 17.7383 24.4705
H 14.3257 17.5213 25.4026
H 15.2438 18.0213 24.3077
Ow 11.8219 20.8802 20.9773
H 10.9518 20.4823 21.0041
H 12.3308 20.3881 21.6216
Ow 25.2441 25.289 0.925187
H 24.2959 25.4169 0.953873
H 25.5397 25.4848 1.81431
Ow 24.5731 16.5577 21.2774
H 25.5174 16.7089 21.2377
H 24.21 17.3869 21.5885
Ow 0.167991 5.82625 22.6966
H 25.7336 6.22604 23.5637
H 0.168016 4.88416 22.866
Ow 3.46242 20.721 10.6774
H 4.35393 21.0688 10.6553
H 3.19905 20.794 11.5948
Ow 18.5879 2.27916 2.63694
H 18.2186 3.12531 2.8898
H 18.358 2.18359 1.71267
Ow 24.4159 1.61597 17.8287
H 24.9937 1.04988 18.3405
H 23.5331 1.37249 18.1072
Ow 14.8753 12.7146 9.26509
H 14.5147 13.0065 10.1024
H 15.5857 13.3296 9.08235
Ow 13.7895 24.9088 20.2283
H 14.4292 24.401 19.7292
H 14.3152 25.4135 20.8489
Ow 3.79313 7.39798 6.57688
H 4.24158 6.9579 5.85476
H 3.13666 6.76692 6.8719
Ow 11.0603 9.81002 9.96786
H 10.6271 9.97074 10.8062
H 10.8782 8.89006 9.77614
Ow 10.6873 13.0844 17.8993
H 11.0664 12.4816 17.2595
H 11.4223 13.6293 18.1804
Ow 14.735 4.9841 14.2251
H 13.8397 5.1331 14.5291
H 14.9984 4.16596 14.6464
Ow 2.04748 6.02929 3.36135
H 2.21064 6.31574 2.46271
H 2.9196 5.91732 3.73963
Ow 12.9431 5.93761 18.8815
H 12.9945 6.05322 19.8303
H 12.6824 5.02403 18.7649
Ow 9.67612 10.9522 11.834
H 9.57021 10.4155 12.6195
H 10.1623 11.7208 12.1323
Ow 23.271 17.8867 15.499
H 22.9186 17.2052 14.9265
H 22.6654 17.9146 16.2398
Ow 0.197452 5.2387 10.539
H 0.976232 5.44503 11.0558
H 0.464591 5.38878 9.63212
Ow 4.1269 0.743099 21.7434
H 3.28521 0.801271 22.1956
H 4.36434 1.65214 21.5604
Ow 20.9041 25.7239 8.95848
H 20.5038 0.25045 8.10355
H 20.5381 0.771397 9.52459
Ow 18.8589 7.31771 3.68382
H 18.2134 7.80273 3.16973
H 18.3377 6.72999 4.23072
Ow 19.8442 1.0467 23.5656
H 19.7269 1.84508 23.0508
H 20.2346 0.422111 22.9543
Ow 1.32652 10.7834 20.9863
H 1.26854 9.92794 20.5608
H 1.71059 10.5994 21.8436
Ow 1.82573 10.7254 8.49265
H 1.51968 10.0838 9.13364
H 1.04117 11.219 8.25376
Ow 1.78558 14.8072 0.287973
H 2.31865 14.6725 1.07151
H 1.70893 13.9368 25.5294
Ow 1.15023 9.83948 3.33153
H 0.667054 10.5329 3.78088
H 0.47146 9.27364 2.96365
Ow 25.5481 16.5203 18.3517
H 25.2457 17.4187 18.4851
H 24.8305 15.9752 18.6744
Ow 23.4506 14.2424 25.5679
H 23.7049 13.5899 0.5883
H 23.8718 15.0507 0.227997
Ow 16.0586 2.90831 8.61374
H 16.6202 3.1375 7.87326
H 16.5728 3.14259 9.3864
Ow 14.4188 11.8268 18.6149
H 15.2606 11.5591 18.2462
H 13.8734 12.0197 17.8523
Ow 24.276 24.7317 21.8689
H 24.5618 24.0093 22.4281
H 23.8863 25.3634 22.4733
Ow 20.1085 2.09951 10.412
H 20.7186 2.21129 11.141
H 20.5274 2.54832 9.67756
Ow 7.73724 0.59384 0.170806
H 6.9034 0.140315 25.6794
H 7.63771 1.41468 25.3207
Ow 10.2279 2.48298 20.1707
H 10.7139 1.66263 20.0865
H 9.47177 2.37427 19.594
Ow 2.4337 1.3895 17.493
H 3.27388 1.73861 17.7904
H 2.37168 0.528468 17.9065
Ow 12.7749 0.970211 3.16359
H 13.3674 1.33031 2.50366
H 11.9098 1.29305 2.91119
Ow 9.69313 4.99327 24.3662
H 10.0888 5.44154 25.1137
H 10.4128 4.49807 23.9749
Ow 10.9414 22.6355 23.8004
H 10.7469 23.0024 22.938
H 10.829 21.6913 23.6905
Ow 3.64673 2.15669 1.95151
H 2.78696 2.56592 2.04928
H 3.75717 1.63713 2.7478
Ow 3.93455 11.6501 20.26
H 3.86927 11.3641 19.3488
H 3.1032 11.3865 20.6544
Ow 23.8069 14.7559 19.2262
H 23.8518 15.2428 20.049
H 22.8847 14.797 18.973
Ow 6.91432 5.78925 0.534799
H 7.66323 6.01564 1.08626
H 6.52295 5.02754 0.962429
Ow 5.58863 13.0479 13.8398
H 6.14277 12.7445 13.1207
H 4.93868 13.6118 13.4205
Ow 3.43286 3.87645 9.29741
H 2.75988 4.5437 9.16285
H 4.21902 4.24357 8.89317
Ow 14.0289 13.5474 5.39578
H 13.3844 13.8776 4.7698
H 14.8548 13.9473 5.12336
Ow 10.0915 25.1519 4.92094
H 10.5903 0.213052 4.48872
H 9.45099 25.617 5.45917
Ow 2.84016 20.829 13.2568
H 1.90724 20.6941 13.0903
H 3.0781 20.1318 13.868
Ow 17.9985 13.4445 17.0717
H 17.933 14.2246 16.5209
H 17.2146 12.9365 16.8626
Ow 13.1273 8.56675 16.4439
H 14.0695 8.72818 16.3951
H 12.8617 8.94717 17.2811
Ow 21.5784 22.2199 22.1278
H 20.7602 21.7396 22.2549
H 22.0779 22.0591 22.9284
Ow 16.7759 23.6799 1.427
H 16.2265 22.9621 1.112
H 17.2336 23.9922 0.646476
Ow 22.342 19.3392 19.0312
H 21.7936 18.7305 18.5363
H 21.9344 20.1946 18.895
Ow 21.5792 13.7458 12.9475
H 21.7424 13.5662 12.0216
H 22.1147 13.1043 13.4144
Ow 3.09159 21.8799 7.9136
H 2.95274 22.568 8.5643
H 4.02725 21.9217 7.71604
Ow 5.75859 11.0363 3.45488
H 5.93183 11.6988 2.78607
H 6.40909 11.2071 4.136
Ow 17.7061 16.9823 22.0194
H 17.7546 17.6524 22.7012
H 16.9641 16.434 22.2742
Ow 10.0696 23.2239 15.3756
H 9.89314 22.4855 15.9585
H 10.8242 22.9451 14.8567
Ow 7.10473 23.373 13.5602
H 7.86834 23.8851 13.2938
H 7.15515 22.5753 13.0336
Ow 2.3511 19.2523 21.0798
H 2.30258 18.3629 20.7294
H 2.46394 19.1329 22.0228
Ow 4.76281 20.4843 4.62079
H 5.29932 21.2556 4.80388
H 3.90139 20.8382 4.39953
Ow 2.76301 13.7169 5.96938
H 1.83356 13.6065 6.16981
H 3.08553 12.8267 5.82879
Ow 0.485354 25.7301 3.42661
H 1.1393 25.6268 4.11792
H 25.6655 0.913455 3.64366
Ow 6.85767 25.6214 21.4596
H 6.0021 0.40189 21.5781
H 7.48406 0.641334 21.7739
Ow 0.604272 2.80777 15.0663
H 0.638059 1.86262 15.2138
H 25.3289 2.97908 14.8146
Ow 15.9063 7.15093 8.55471
H 15.259 6.45221 8.65005
H 16.5571 6.96929 9.23266
Ow 11.7447 24.3542 0.210674
H 11.3545 23.7956 25.1705
H 11.9874 25.1551 25.378
Ow 21.2426 18.4602 21.4752
H 20.7582 19.016 22.0857
H 21.4972 19.0491 20.7648
Ow 7.65079 15.4194 11.6729
H 6.9933 15.268 10.994
H 8.48592 15.4069 11.2054
Ow 21.9972 13.7752 10.2212
H 21.9642 14.728 10.1347
H 22.8753 13.5375 9.9233
Ow 5.91578 3.78008 2.05982
H 5.11309 3.26899 1.95637
H 5.73614 4.36226 2.79808
Ow 21.9923 0.475825 19.3874
H 22.2625 25.3984 18.8045
H 21.1825 0.80887 19.0007
Ow 5.62687 10.0351 21.6528
H 6.44066 10.4515 21.9367
H 5.08756 10.7572 21.3305
Ow 7.34218 12.5331 20.9576
H 8.11199 13.1019 20.947
H 6.74402 12.9269 20.3225
Ow 8.70912 22.3147 19.4566
H 9.08912 23.076 19.018
H 7.77762 22.353 19.2396
Ow 24.6464 20.8025 14.8237
H 24.1814 21.6301 14.9467
H 24.0038 20.1302 15.0502
Ow 5.99606 4.8273 8.36437
H 6.32854 4.51933 9.20748
H 5.82752 5.75988 8.49902
Ow 4.54871 7.84917 22.7707
H 4.19501 8.16706 23.6014
H 4.87138 8.63558 22.3306
Ow 24.8626 14.1845 9.63303
H 24.914 14.041 8.68806
H 24.6899 15.1216 9.72439
Ow 15.8509 0.318896 24.1072
H 16.7042 0.394847 24.5343
H 15.3786 1.10803 24.3726
Ow 1.89867 23.4455 5.70103
H 2.07018 22.9834 4.88052
H 2.06975 22.7957 6.38275
Ow 14.8429 0.306685 8.60566
H 15.5355 0.958318 8.49661
H 14.3676 0.320303 7.7749
Ow 16.3685 14.4993 4.21415
H 16.8367 15.3169 4.38351
H 17.0462 13.824 4.24451
Ow 24.2503 9.443 13.6747
H 23.9114 10.2771 13.9995
H 23.9359 8.7945 14.3046
Ow 14.0597 3.7998 2.86006
H 14.0543 3.77423 1.90322
H 13.1867 4.1132 3.09666
Ow 10.8091 18.3233 16.8245
H 11.4621 17.7771 16.3868
H 10.6663 17.8962 17.6692
Ow 24.8689 2.70449 4.49902
H 25.2914 3.25383 5.15929
H 24.4409 2.0114 5.00166
Ow 20.8915 13.3148 2.85487
H 21.3494 14.0417 2.43272
H 21.0539 12.5645 2.28315
Ow 1.54941 19.5703 7.35098
H 0.642098 19.6674 7.06187
H 1.85289 20.4668 7.49421
Ow 9.51985 25.3884 9.07188
H 10.3319 0.119739 8.71868
H 9.10279 0.491911 9.52038
Ow 22.8821 14.5223 6.02951
H 23.1332 14.9671 5.21995
H 23.7129 14.2689 6.43172
Ow 8.79348 18.1045 23.1556
H 8.93759 18.7819 22.4949
H 8.26114 18.5326 23.8261
Ow 6.33839 22.8352 5.60393
H 6.07887 23.7536 5.53117
H 7.26879 22.8301 5.37907
Ow 9.09481 23.8217 0.987484
H 9.9905 24.1591 0.995748
H 8.6048 24.4544 0.462306
Ow 18.3319 11.0809 10.7481
H 18.5712 11.7011 11.4367
H 19.1631 10.6926 10.4753
Ow 5.60466 7.70572 8.72893
H 5.02939 7.70406 9.49398
H 5.00883 7.67179 7.98056
Ow 3.02005 1.63214 14.4035
H 2.20011 1.97824 14.0512
H 2.75945 1.14989 15.1882
Ow 9.38378 17.0196 0.761637
H 8.93164 17.2849 1.56254
H 8.70418 16.6088 0.227235
Ow 17.1478 4.01261 6.31605
H 16.4737 3.41276 5.99669
H 16.7052 4.85893 6.37995
Ow 7.50919 25.0667 3.00444
H 8.20616 24.7377 2.43676
H 7.7971 0.312774 3.25372
Ow 9.73422 5.03471 11.1191
H 9.57428 5.66481 11.8217
H 8.90832 4.55899 11.0307
Ow 1.64214 20.0803 1.94872
H 2.16713 20.2946 1.17757
H 0.822305 20.5576 1.82114
Ow 13.9637 14.6329 24.8201
H 14.0117 13.7922 24.365
H 13.8241 15.2749 24.124
Ow 18.5393 24.7004 24.8725
H 18.9457 25.3285 24.2753
H 18.0002 24.1466 24.3077
Ow 4.04256 8.00759 10.76
H 4.19456 7.3434 11.4323
H 4.22347 8.83889 11.1987
Ow 17.5572 16.205 18.8051
H 17.817 17.012 19.2496
H 17.7051 16.3842 17.8765
Ow 12.0243 11.0197 0.496232
H 12.219 10.653 1.35867
H 11.5007 11.7997 0.679795
Ow 7.34177 7.08449 15.0652
H 7.34741 6.56958 14.2583
H 7.96819 7.79007 14.904
Ow 14.9413 9.3331 25.5073
H 15.4289 8.91099 0.582468
H 14.1612 8.78967 25.396
Ow 20.2899 8.53433 14.0349
H 19.7806 7.82233 13.6477
H 20.862 8.10269 14.6694
Ow 21.2118 20.3142 10.4266
H 21.3764 19.9582 9.55344
H 20.9677 19.5534 10.9538
Ow 4.67634 11.236 10.9128
H 5.28952 11.8038 11.3795
H 4.00729 11.8315 10.5751
Ow 16.5062 11.009 23.3209
H 16.9769 11.6773 23.819
H 15.5827 11.2384 23.4247
Ow 18.9994 23.5313 19.4261
H 19.0393 24.2416 18.7858
H 19.7555 22.9811 19.2217
Ow 9.48496 21.0472 0.541239
H 8.79287 20.6216 25.6673
H 9.62372 21.8854 25.7324
Ow 7.54085 3.24045 21.5698
H 8.15604 2.88564 20.928
H 7.66975 4.18798 21.5275
Ow 8.03753 11.3884 24.8933
H 8.05513 10.4358 24.9851
H 7.48276 11.6887 25.6133
Ow 19.8899 9.93644 24.3993
H 19.4864 9.30877 23.7997
H 20.1737 9.40766 25.145
Ow 22.717 24.1914 17.5513
H 23.015 23.5947 18.2379
H 22.774 23.6778 16.7456
Ow 4.17981 17.0904 24.9311
H 4.48309 16.3995 24.3421
H 4.22059 16.6975 0.170891
Ow 7.37489 13.8247 5.81304
H 7.10253 14.2607 5.00559
H 6.57515 13.4197 6.14861
Ow 2.40224 1.94671 7.74463
H 1.66138 2.41113 7.35519
H 2.8108 2.58975 8.32412
Ow 8.47837 3.02952 16.4236
H 8.4117 3.98314 16.3746
H 9.14619 2.80211 15.7766
Ow 24.9008 3.7037 0.109318
H 25.2621 4.09703 0.903682
H 24.2496 4.33508 25.4358
Ow 6.96518 5.10019 13.4904
H 6.41324 4.53875 14.0348
H 7.01949 4.64249 12.6515
Ow 23.8043 3.47515 10.9951
H 23.2075 3.92977 11.5896
H 24.62 3.97327 11.0467
Ow 9.58881 14.3641 14.1303
H 9.86355 15.2357 13.8454
H 9.35473 14.4756 15.0518
Ow 20.3703 6.17283 25.5539
H 21.0355 6.67592 0.391568
H 20.7302 6.06226 24.6738
Ow 13.7388 0.806725 11.21
H 13.8017 0.786294 10.2551
H 13.1471 1.53582 11.3959
Ow 17.6303 25.3891 7.14087
H 17.5842 24.757 7.85823
H 18.5512 25.6481 7.10795
Ow 9.23584 21.0349 17.0231
H 8.54663 20.3765 17.1111
H 9.3703 21.362 17.9125
Ow 18.603 2.19802 15.0346
H 18.7624 1.68891 15.8293
H 18.6491 1.55672 14.3255
Ow 3.71378 23.7589 1.94608
H 3.76549 24.5974 2.4049
H 3.87541 23.9772 1.02823
Ow 3.25842 5.0417 24.38
H 3.67206 4.19885 24.5663
H 2.43595 4.81467 23.9461
Ow 0.811656 3.04178 23.3253
H 0.929316 2.09485 23.2497
H 0.622995 3.18686 24.2524
Ow 18.7995 14.7238 20.7324
H 18.3727 15.2949 21.3711
H 18.4301 14.988 19.8898
Ow 8.06241 16.1737 18.8618
H 8.98479 16.4188 18.9354
H 7.8166 15.8965 19.7444
Ow 21.096 8.15387 4.84114
H 20.22 7.90357 4.54777
H 21.6614 7.44073 4.5444
Ow 6.46082 6.05684 23.3439
H 6.567 5.81414 24.2637
H 5.68376 6.61564 23.3313
Ow 11.5233 20.88 4.36516
H 10.7208 21.2666 4.71565
H 11.8744 21.5482 3.77658
Ow 22.6784 3.74926 16.9324
H 22.9432 4.655 17.0929
H 23.4385 3.22772 17.1903
Ow 2.93853 21.3805 25.4812
H 2.48941 22.2099 25.3181
H 3.86924 21.603 25.4578
Ow 14.0771 8.03723 3.02323
H 14.986 7.99586 2.72594
H 13.9705 7.26411 3.57744
Ow 15.6539 12.5463 15.6973
H 15.8127 11.8219 15.092
H 15.5766 13.3167 15.1345
Ow 6.02995 21.7859 10.4768
H 5.81793 22.7187 10.5118
H 6.12482 21.5962 9.5434
Ow 6.06788 22.4844 2.21582
H 5.20428 22.8944 2.26356
H 6.67871 23.2183 2.14954
Ow 4.73535 15.1339 23.0487
H 5.38765 15.4585 22.4279
H 5.02924 14.249 23.2649
Ow 18.9815 8.23434 22.4802
H 19.7068 7.60971 22.4756
H 18.8533 8.4601 21.5588
Ow 0.327177 13.7684 3.41889
H 25.6901 14.1779 4.24113
H 1.27286 13.9107 3.37816
Ow 21.5236 17.4911 7.0886
H 21.9472 16.9289 6.44
H 21.8554 18.3687 6.89877
Ow 19.4511 6.18168 18.5312
H 18.6148 6.17684 18.9968
H 19.2602 6.61572 17.6996
Ow 16.3721 17.3682 11.3541
H 16.9805 16.7467 11.754
H 15.5503 16.8835 11.2767
Ow 24.4301 20.8769 1.71601
H 24.4757 20.3936 0.891043
H 24.5521 20.2101 2.39184
Ow 5.81943 19.2311 2.43278
H 6.5753 18.7694 2.79565
H 5.47761 19.7444 3.16488
Ow 9.42909 0.302286 23.421
H 8.89978 0.219621 24.2143
H 9.55902 1.24483 23.3164
Ow 9.30937 20.2533 8.67555
H 9.95317 20.0184 9.34383
H 9.82698 20.6387 7.96861
Ow 21.2597 8.70892 0.989378
H 22.147 8.62865 1.33941
H 20.7023 8.78623 1.76371
Ow 7.90249 1.87769 18.8957
H 8.17894 2.20471 18.0396
H 7.00673 2.19933 18.9976
Ow 4.53288 15.8694 14.8717
H 4.23065 15.6494 15.7529
H 3.94822 15.3842 14.2894
Ow 4.55204 0.278636 25.4256
H 4.78753 0.889736 24.7275
H 4.2894 0.838536 0.524086
Ow 17.0264 3.52778 12.9255
H 17.2268 3.56349 11.9902
H 17.7964 3.11891 13.3205
Ow 4.67459 20.2899 19.6003
H 4.0544 20.1097 20.3068
H 5.0853 21.1185 19.847
Ow 10.177 14.6762 5.54731
H 10.3022 15.2968 6.26523
H 9.2274 14.622 5.43981
Ow 0.306284 20.5545 12.2712
H 25.3568 20.5724 13.0312
H 25.3485 20.5113 11.5186
Ow 11.8172 24.9412 22.4964
H 11.3797 25.1098 21.6619
H 11.1361 25.0745 23.1556
Ow 23.6363 3.69094 14.38
H 23.1715 3.71139 15.2165
H 23.2799 4.43144 13.8893
Ow 19.9393 8.77296 10.1918
H 19.2899 8.07031 10.162
H 20.0401 9.04542 9.27972
Ow 1.76259 16.1816 22.0845
H 1.94866 16.4592 21.1875
H 2.52913 15.6688 22.3409
Ow 22.8732 16.3819 13.0032
H 22.5252 15.4958 13.1023
H 22.1314 16.897 12.6859
Ow 15.4189 0.206396 2.42035
H 14.9005 25.2257 2.94191
H 15.8805 25.286 1.78955
Ow 7.52234 1.95039 13.6151
H 7.99398 1.15087 13.3815
H 7.5123 2.46716 12.8094
Ow 23.2752 7.8852 22.4229
H 23.7229 7.61662 21.6206
H 23.8827 8.49278 22.8448
Ow 3.78658 11.0601 5.50938
H 4.50585 11.1745 6.1305
H 4.21611 10.9699 4.65873
Ow 22.4708 8.20914 15.4527
H 22.1824 8.85355 16.099
H 22.8247 7.4884 15.9738
Ow 18.7813 17.4806 0.955011
H 18.534 16.5561 0.934931
H 19.7383 17.4734 0.93963
Ow 4.6616 0.160381 3.86423
H 5.60168 0.107168 4.03641
H 4.25526 25.7271 4.72844
Ow 25.0612 19.2932 18.5679
H 24.1167 19.1629 18.6529
H 25.3061 19.7901 19.3485
Ow 11.764 15.2047 1.79869
H 11.4221 14.4918 1.25914
H 11.024 15.8029 1.90288
Ow 10.76 6.79538 17.2877
H 9.87227 6.49087 17.4758
H 11.313 6.32165 17.909
Ow 17.3514 22.3439 17.7173
H 17.4159 21.3899 17.6734
H 17.9841 22.5965 18.3897
Ow 14.3506 17.5067 1.66089
H 14.5859 18.4322 1.72666
H 14.1678 17.2409 2.5621
Ow 20.7863 24.9136 21.5405
H 21.1924 24.0702 21.7404
H 21.1663 25.1697 20.7001
Ow 2.66903 5.90607 21.2827
H 3.33044 6.40604 21.7611
H 1.8707 6.00673 21.8012
Ow 10.3605 1.63008 2.23564
H 10.3216 1.44223 1.29786
H 9.46511 1.87572 2.46848
Ow 5.65935 12.0409 7.27981
H 6.02252 11.4248 7.916
H 5.03392 12.5635 7.78182
Ow 24.115 20.9829 10.2684
H 24.0467 21.6268 9.56351
H 23.2916 20.4963 10.2295
Ow 0.297928 16.6379 7.39179
H 1.25475 16.6545 7.37061
H 25.6986 15.7582 7.09384
Ow 23.1431 3.14736 2.31593
H 23.783 2.83851 2.95739
H 23.6509 3.28089 1.5156
Ow 0.190118 11.0799 17.9018
H 0.770419 11.1793 18.6565
H 25.2299 10.3689 18.1466
Ow 25.6212 13.067 14.2089
H 25.7055 13.9565 13.8657
H 0.848046 12.8719 14.5835
Ow 19.5991 18.2081 14.9491
H 19.0188 17.4858 15.1894
H 19.8783 18.0048 14.0564
Ow 17.7831 3.68561 10.5153
H 18.0607 4.59259 10.3867
H 18.6003 3.19196 10.5841
Ow 23.1564 9.46399 6.14351
H 22.4149 9.26868 5.57049
H 23.7888 8.76853 5.96307
Ow 24.0843 22.8027 19.6129
H 23.8416 23.3175 20.3825
H 24.7386 22.1828 19.9354
Ow 18.8035 7.63524 16.3186
H 19.263 8.10725 15.6241
H 18.0198 8.15851 16.4866
Ow 4.20249 9.73191 13.0866
H 4.15629 10.3235 12.3355
H 3.30317 9.68534 13.4111
Ow 21.2782 14.8661 18.0024
H 20.4878 14.5197 18.4165
H 21.375 14.3509 17.2015
Ow 1.23602 3.30394 2.61258
H 1.73567 4.09515 2.81401
H 0.461793 3.35995 3.17264
Ow 21.6753 16.4059 9.8012
H 21.3438 16.6392 8.93405
H 21.3634 17.1066 10.3739
Ow 16.2921 14.7112 7.99753
H 16.9108 14.4331 7.32214
H 16.3506 15.6667 7.99777
Ow 2.17391 18.5843 9.69692
H 1.93146 18.8078 8.79833
H 2.39799 19.4227 10.1007
Ow 12.255 19.5473 1.04859
H 11.395 19.9321 1.21794
H 12.4853 19.1054 1.86584
Ow 12.0908 3.2474 11.8245
H 11.4853 3.96967 11.6574
H 11.9818 3.05335 12.7555
Ow 20.8801 12.8056 5.54979
H 21.6303 13.3553 5.77624
H 20.8242 12.8571 4.59562
Ow 0.494508 18.0014 14.7388
H 0.781357 17.4064 15.4316
H 25.22 18.2115 14.963
Ow 10.3406 9.79847 5.66382
H 9.84567 9.04896 5.99479
H 10.2664 10.4584 6.35321
Ow 21.7578 4.4035 20.4404
H 20.9825 4.05008 20.8766
H 22.4513 3.77352 20.6362
Ow 9.55865 25.3188 13.3049
H 10.3103 25.0761 12.7642
H 9.73524 24.9172 14.1556
Ow 16.7867 4.65784 21.5762
H 17.6699 4.42454 21.8623
H 16.354 3.81772 21.4239
Ow 11.856 1.37395 25.1975
H 11.84 1.89648 24.3956
H 12.7145 1.55071 25.582
Ow 9.89089 16.0207 10.2264
H 10.4984 15.2809 10.2238
H 10.1488 16.5403 10.9877
Ow 23.313 24.2241 12.2647
H 23.2127 23.7826 13.108
H 24.1838 23.9674 11.9614
Ow 20.4514 5.1485 2.89882
H 19.9666 5.97291 2.85931
H 20.5335 4.87435 1.9854
Ow 2.58786 21.957 3.73262
H 2.39291 21.2822 3.08228
H 2.90652 22.6997 3.21972
Ow 17.3328 23.205 4.05183
H 17.1776 23.3058 3.11268
H 16.4994 22.8881 4.40013
Ow 21.564 17.1336 0.646733
H 21.8135 16.4169 25.6955
H 21.932 17.9162 0.236305
Ow 18.246 12.6885 3.13254
H 18.0542 12.2517 2.3027
H 19.1954 12.8107 3.12554
Ow 9.49268 11.1796 15.9232
H 8.55192 11.3341 16.0087
H 9.56462 10.5045 15.2484
Ow 24.6185 16.9114 10.0519
H 25.1512 16.9758 9.25927
H 23.7916 17.3343 9.82028
Ow 7.47232 19.0368 18.1061
H 6.60338 19.2792 18.4261
H 7.53793 18.0974 18.2778
Ow 25.7097 25.4205 19.3412
H 0.910771 24.969 19.4764
H 25.1146 25.021 19.9757
Ow 22.3694 4.11724 24.2728
H 22.2321 3.18152 24.1251
H 21.4868 4.48102 24.3436
Ow 12.6034 14.8494 18.7624
H 13.4114 15.1997 18.3873
H 12.0383 15.6142 18.8719
Ow 12.7621 19.4497 12.9485
H 12.0389 18.8644 13.1735
H 12.6376 20.2129 13.5126
Ow 10.9335 4.08658 5.95361
H 11.1497 3.35493 6.5317
H 11.375 4.84029 6.34506
Ow 10.9848 3.15498 23.0171
H 11.8899 3.42211 22.8568
H 10.5632 3.20905 22.1594
Ow 5.83269 14.9463 9.32694