LAMMPS (22 Aug 2018)
####################################################
# Transport properties of KCl in water
#  at 298 K and 1 atm.
#################### SETTING UP ####################
units real
dimension 3
newton on
boundary p p p
atom_style full

#################### VARIABLES ####################
variable Temp equal 298       # Temperature in K
variable Pres equal 1.0       # Pressure in atm.

variable RandomSeed equal 200 # The random seed for velocity
variable tstep equal 2.0      # 2fs
variable Ninptpre equal 10000 # Pre-initialize the NPT ensemble (very small timesteps)
variable Ninpt equal 5000000    # Initialize the NPT ensemble
variable Npnpt equal 5000000  # Production in the NPT ensemble (volume)
variable Ninvtpre equal 10000 # Pre-initialize the NVT ensemble (very small timesteps)
variable Ninvt equal 100000   # Initialize the NVT ensemble
variable Npnvt equal 100000   # Production in the NVT ensemble (energy)
variable Nrun equal 100000000   # production in the NVE ensemble
variable Nf equal 10000       # Nfreq (fix ave/time and thermo)
variable Ne equal  10         # Nevery (fix ave/time)
variable Nr equal ${Nf}/${Ne} # Nrepeat (fix ave/time)
variable Nr equal 10000/${Ne} 
variable Nr equal 10000/10 
variable NBR equal ${Npnpt}/50 # Block averaging for density (NPT)
variable NBR equal 5000000/50 
variable Nd equal ${Npnvt}/10 # Frequency of outputting positions of atoms in the NVT ensemble
variable Nd equal 100000/10 

variable nb equal 10          # Number of blocks (fix ordern)
variable nbe equal 20         # Number of block elements (fix ordern)
variable Nvisc equal 5        # Nevery for viscosity (fix ordern: sample data at (Nvisc*2))
variable Ncond equal 5        # Nevery for Tconductivity (fix ordern: sample data at (Ncond*2))
variable Ndiff equal 1000     # Nevery for diffusivity (fix ordern: sample data at (Ndiff))
variable Nwrit equal 100000   # Nwrite for transport properties (fix ordern: write every (Nwrit))

variable Nrdfe equal 100      # Nevery for RDF (fix ave/time)
variable Nrdfw equal 1000     # Nwrite for RDF (compute rdf/ext: write every (Nrdfw*Nrdfe))
variable binnum equal 2000    # Number of bins for RDF

#################### ATOM DEFINITION and FORCEFIELD ####################
read_data ./data.lmp                     # read the positions
  orthogonal box = (0 0 0) to (32.8974 32.8974 32.8974)
  4 by 4 by 8 MPI processor grid
  reading atoms ...
  3072 atoms
  scanning bonds ...
  2 = max bonds/atom
  scanning angles ...
  1 = max angles/atom
  reading bonds ...
  2000 bonds
  reading angles ...
  1000 angles
  2 = max # of 1-2 neighbors
  1 = max # of 1-3 neighbors
  1 = max # of 1-4 neighbors
  2 = max # of special neighbors
include ./forcefield.data                  # read the force field
#--------INTERMOLECULAR POTENTIAL -------------------#
# ---------------Developed for NaCl in water (tip4p/2005) system-----

mass 1 15.9994 # Ow
mass 2 1.00794 # Hw
mass 3 39.0983 # K
mass 4 35.4527 # Cl

pair_style lj/cut/tip4p/long 1 2 1 1 0.1546 10.0

kspace_style pppm/tip4p 1.0e-5
pair_modify tail yes # ATC i

#-----------------Combinations----------------------------
# atomtype atomtype epsilon sigma

pair_coeff 1 1 0.1851 3.1589     # Ow-Ow
pair_coeff 1 2 0.0000 0.0000     # Ow-Hw
pair_coeff 1 3 0.3347 2.89540     # Ow-K
pair_coeff 1 4 0.0148 4.07631     # Ow-Cl

pair_coeff 2 2 0.0000 0.0000     # Hw-Hw
pair_coeff 2 3 0.0000 0.0000     # Hw-K
pair_coeff 2 4 0.0000 0.0000     # Hw-Cl

pair_coeff 3 3 0.4746 2.30140     # K-K
pair_coeff 3 4 0.3346 3.41700     # K-Cl

pair_coeff 4 4 0.0184 4.69906     # Cl-Cl

bond_style  harmonic
bond_coeff 1 1000 0.9572          # Ow-Hw

angle_style harmonic
angle_coeff 1 100 104.52          # H-O-H

#dihedral_style none
#improper_style none

set type 1 charge -1.1128        # O
  1000 settings made for charge
set type 2 charge +0.5564        # OH
  2000 settings made for charge
set type 3 charge +0.7500        # K
  36 settings made for charge
set type 4 charge -0.7500        # Cl
  36 settings made for charge


#################### INITIALIZATION ####################
# groups for the central atoms of water (O)
group wat type 1      # The Oxygen of WATER molecules
1000 atoms in group wat
group K type 3
36 atoms in group K
group Cl type 4
36 atoms in group Cl

# neigbor lists
neighbor 2.0 bin
neigh_modify every 1 delay 0 check yes

# velocity-Verlet integrator
run_style verlet

# minimizing the system using the conjugate gradient method
min_style cg
min_modify dmax 0.05
minimize 1.0e-6 1.0e-6 1000 10000
PPPM initialization ...
  extracting TIP4P info from pair style
  using 12-bit tables for long-range coulomb (../kspace.cpp:321)
  G vector (1/distance) = 0.308492
  grid = 30 30 30
  stencil order = 5
  estimated absolute RMS force accuracy = 0.00396779
  estimated relative force accuracy = 1.19489e-05
  using double precision FFTs
  3d grid and FFT values/proc = 2475 256
Neighbor list info ...
  update every 1 steps, delay 0 steps, check yes
  max neighbors/atom: 2000, page size: 100000
  master list distance cutoff = 12.3092
  ghost atom cutoff = 12.3092
  binsize = 6.1546, bins = 6 6 6
  1 neighbor lists, perpetual/occasional/extra = 1 0 0
  (1) pair lj/cut/tip4p/long, perpetual
      attributes: half, newton on
      pair build: half/bin/newton
      stencil: half/bin/3d/newton
      bin: standard
Per MPI rank memory allocation (min/avg/max) = 8.191 | 8.258 | 8.457 Mbytes
Step Temp E_pair E_mol TotEng Press 
       0            0   -533.24652 3.2833764e-05   -533.24649    18749.729 
    1000            0   -17665.195    375.59183   -17289.603   -4566.8555 
Loop time of 1.41163 on 128 procs for 1000 steps with 3072 atoms

98.7% CPU use with 128 MPI tasks x no OpenMP threads

Minimization stats:
  Stopping criterion = max iterations
  Energy initial, next-to-last, final = 
        -533.246487313     -17289.2230974     -17289.6031842
  Force two-norm initial, final = 1265.98 42.907
  Force max component initial, final = 165.576 8.87677
  Final line search alpha, max atom move = 0.00715157 0.0634828
  Iterations, force evaluations = 1000 1788

MPI task timing breakdown:
Section |  min time  |  avg time  |  max time  |%varavg| %total
---------------------------------------------------------------
Pair    | 0.19382    | 0.35706    | 0.55899    |  12.0 | 25.29
Bond    | 0.0011458  | 0.001617   | 0.0023236  |   0.6 |  0.11
Kspace  | 0.57912    | 0.78999    | 0.95935    |   8.1 | 55.96
Neigh   | 0.0061725  | 0.0063002  | 0.0064307  |   0.1 |  0.45
Comm    | 0.1577     | 0.17812    | 0.19739    |   2.4 | 12.62
Output  | 8.7413e-05 | 9.0154e-05 | 9.3344e-05 |   0.0 |  0.01
Modify  | 0          | 0          | 0          |   0.0 |  0.00
Other   |            | 0.07845    |            |       |  5.56

Nlocal:    24 ave 36 max 12 min
Histogram: 3 3 16 16 20 30 20 15 4 1
Nghost:    2651.09 ave 2706 max 2611 min
Histogram: 22 12 19 24 3 1 16 14 11 6
Neighs:    8116.65 ave 14013 max 3703 min
Histogram: 4 10 14 29 25 25 11 8 1 1

Total # of neighbors = 1038931
Ave neighs/atom = 338.194
Ave special neighs/atom = 1.95312
Neighbor list builds = 20
Dangerous builds = 0
reset_timestep 0

# initializing velocities
velocity all create ${Temp} ${RandomSeed}
velocity all create 298 ${RandomSeed}
velocity all create 298 200

# rate of writing thermal properties to the log file
thermo ${Nf}
thermo 10000

#################### 1) Initialize the NPT ensemble ####################
# applying the shake algorithm for rigid molecules and the NPT solver
fix constrain all shake 1.0e-6 1000 0 b 1 a 1
  0 = # of size 2 clusters
  0 = # of size 3 clusters
  0 = # of size 4 clusters
  1000 = # of frozen angles
fix integrate all npt temp ${Temp} ${Temp} 10.0 iso ${Pres} ${Pres} 100.0
fix integrate all npt temp 298 ${Temp} 10.0 iso ${Pres} ${Pres} 100.0
fix integrate all npt temp 298 298 10.0 iso ${Pres} ${Pres} 100.0
fix integrate all npt temp 298 298 10.0 iso 1 ${Pres} 100.0
fix integrate all npt temp 298 298 10.0 iso 1 1 100.0


# Initializing the whole system with very small timesteps in the NPT ensemble
timestep 0.001
run ${Ninptpre}
run 10000
PPPM initialization ...
  extracting TIP4P info from pair style
  using 12-bit tables for long-range coulomb (../kspace.cpp:321)
  G vector (1/distance) = 0.308492
  grid = 30 30 30
  stencil order = 5
  estimated absolute RMS force accuracy = 0.00396779
  estimated relative force accuracy = 1.19489e-05
  using double precision FFTs
  3d grid and FFT values/proc = 2475 256
Per MPI rank memory allocation (min/avg/max) = 7.941 | 8.096 | 8.208 Mbytes
Step Temp E_pair E_mol TotEng Press Volume 
       0    441.89184   -17665.195            0   -14937.283     -1614797    35602.788 
   10000    171.77326   -16073.875            0   -15013.474    1686.9662    35460.994 
Loop time of 9.21977 on 128 procs for 10000 steps with 3072 atoms

Performance: 0.094 ns/day, 256.105 hours/ns, 1084.626 timesteps/s
99.5% CPU use with 128 MPI tasks x no OpenMP threads

MPI task timing breakdown:
Section |  min time  |  avg time  |  max time  |%varavg| %total
---------------------------------------------------------------
Pair    | 1.1038     | 2.3513     | 4.0579     |  36.4 | 25.50
Bond    | 0.00090077 | 0.0010779  | 0.0016994  |   0.4 |  0.01
Kspace  | 2.9398     | 4.6897     | 5.9075     |  25.6 | 50.87
Neigh   | 0          | 0          | 0          |   0.0 |  0.00
Comm    | 0.82191    | 0.94575    | 1.093      |   6.6 | 10.26
Output  | 7.6573e-05 | 7.8973e-05 | 8.2254e-05 |   0.0 |  0.00
Modify  | 0.89378    | 1.1017     | 1.1837     |   6.4 | 11.95
Other   |            | 0.1302     |            |       |  1.41

Nlocal:    24 ave 36 max 12 min
Histogram: 4 3 13 17 18 34 17 17 4 1
Nghost:    2652.02 ave 2706 max 2613 min
Histogram: 18 14 15 31 2 1 19 12 10 6
Neighs:    8116.63 ave 13979 max 3878 min
Histogram: 6 8 20 20 28 26 11 7 1 1

Total # of neighbors = 1038929
Ave neighs/atom = 338.193
Ave special neighs/atom = 1.95312
Neighbor list builds = 0
Dangerous builds = 0
timestep 0.01
run ${Ninptpre}
run 10000
PPPM initialization ...
  extracting TIP4P info from pair style
  using 12-bit tables for long-range coulomb (../kspace.cpp:321)
  G vector (1/distance) = 0.308589
  grid = 30 30 30
  stencil order = 5
  estimated absolute RMS force accuracy = 0.00395207
  estimated relative force accuracy = 1.19015e-05
  using double precision FFTs
  3d grid and FFT values/proc = 2475 256
Per MPI rank memory allocation (min/avg/max) = 7.941 | 8.1 | 8.208 Mbytes
Step Temp E_pair E_mol TotEng Press Volume 
   10000    171.77326   -16073.874            0   -15013.474   -39494.636    35460.994 
   20000    297.94411   -14952.762            0   -13113.477   -909.58312     35883.18 
Loop time of 9.00409 on 128 procs for 10000 steps with 3072 atoms

Performance: 0.960 ns/day, 25.011 hours/ns, 1110.607 timesteps/s
99.5% CPU use with 128 MPI tasks x no OpenMP threads

MPI task timing breakdown:
Section |  min time  |  avg time  |  max time  |%varavg| %total
---------------------------------------------------------------
Pair    | 1.0726     | 2.3192     | 3.6411     |  34.7 | 25.76
Bond    | 0.00091249 | 0.0010815  | 0.0017365  |   0.4 |  0.01
Kspace  | 3.1106     | 4.4758     | 5.6948     |  24.8 | 49.71
Neigh   | 0.0023228  | 0.0023577  | 0.0023852  |   0.0 |  0.03
Comm    | 0.82237    | 0.93972    | 1.0701     |   6.6 | 10.44
Output  | 8.6562e-05 | 8.835e-05  | 9.1391e-05 |   0.0 |  0.00
Modify  | 0.90608    | 1.1023     | 1.1873     |   6.3 | 12.24
Other   |            | 0.1636     |            |       |  1.82

Nlocal:    24 ave 34 max 11 min
Histogram: 2 4 2 20 14 25 30 19 8 4
Nghost:    2626.81 ave 2686 max 2592 min
Histogram: 22 20 19 21 11 7 10 4 9 5
Neighs:    8022.2 ave 12264 max 3415 min
Histogram: 3 5 8 22 21 21 24 13 8 3

Total # of neighbors = 1026842
Ave neighs/atom = 334.258
Ave special neighs/atom = 1.95312
Neighbor list builds = 4
Dangerous builds = 0
timestep 0.1
run ${Ninptpre}
run 10000
PPPM initialization ...
  extracting TIP4P info from pair style
  using 12-bit tables for long-range coulomb (../kspace.cpp:321)
  G vector (1/distance) = 0.308302
  grid = 30 30 30
  stencil order = 5
  estimated absolute RMS force accuracy = 0.00399888
  estimated relative force accuracy = 1.20425e-05
  using double precision FFTs
  3d grid and FFT values/proc = 2475 256
Per MPI rank memory allocation (min/avg/max) = 7.941 | 8.106 | 8.208 Mbytes
Step Temp E_pair E_mol TotEng Press Volume 
   20000    297.94411   -14952.762            0   -13113.476   -14214.531     35883.18 
   30000    291.59761   -14892.189            0   -13092.082   -107.17967    32174.379 
Loop time of 9.1939 on 128 procs for 10000 steps with 3072 atoms

Performance: 9.398 ns/day, 2.554 hours/ns, 1087.678 timesteps/s
99.5% CPU use with 128 MPI tasks x no OpenMP threads

MPI task timing breakdown:
Section |  min time  |  avg time  |  max time  |%varavg| %total
---------------------------------------------------------------
Pair    | 1.3437     | 2.5702     | 3.5702     |  27.0 | 27.96
Bond    | 0.00091395 | 0.0011031  | 0.0017825  |   0.4 |  0.01
Kspace  | 3.2743     | 4.2942     | 5.5089     |  20.7 | 46.71
Neigh   | 0.01472    | 0.014837   | 0.014998   |   0.0 |  0.16
Comm    | 0.93579    | 1.0286     | 1.1293     |   4.3 | 11.19
Output  | 9.0039e-05 | 9.3055e-05 | 9.6179e-05 |   0.0 |  0.00
Modify  | 0.94028    | 1.1311     | 1.214      |   6.1 | 12.30
Other   |            | 0.1538     |            |       |  1.67

Nlocal:    24 ave 33 max 17 min
Histogram: 3 12 12 32 17 31 10 4 4 3
Nghost:    2861.34 ave 2895 max 2826 min
Histogram: 2 11 13 18 14 23 14 20 11 2
Neighs:    8943.73 ave 12950 max 5805 min
Histogram: 8 10 14 19 28 23 12 9 4 1

Total # of neighbors = 1144798
Ave neighs/atom = 372.656
Ave special neighs/atom = 1.95312
Neighbor list builds = 48
Dangerous builds = 0
timestep 0.2
run ${Ninptpre}
run 10000
PPPM initialization ...
  extracting TIP4P info from pair style
  using 12-bit tables for long-range coulomb (../kspace.cpp:321)
  G vector (1/distance) = 0.310932
  grid = 30 30 30
  stencil order = 5
  estimated absolute RMS force accuracy = 0.00358798
  estimated relative force accuracy = 1.08051e-05
  using double precision FFTs
  3d grid and FFT values/proc = 2475 256
Per MPI rank memory allocation (min/avg/max) = 7.95 | 8.164 | 8.217 Mbytes
Step Temp E_pair E_mol TotEng Press Volume 
   30000    291.59761   -14892.192            0   -13092.085    2109.9879    32174.379 
   40000    296.67727   -15005.515            0    -13174.05   -334.89412    31857.685 
Loop time of 9.29457 on 128 procs for 10000 steps with 3072 atoms

Performance: 18.591 ns/day, 1.291 hours/ns, 1075.897 timesteps/s
99.5% CPU use with 128 MPI tasks x no OpenMP threads

MPI task timing breakdown:
Section |  min time  |  avg time  |  max time  |%varavg| %total
---------------------------------------------------------------
Pair    | 1.7838     | 2.6917     | 3.6989     |  21.7 | 28.96
Bond    | 0.00093655 | 0.0011199  | 0.001801   |   0.4 |  0.01
Kspace  | 3.2218     | 4.2487     | 5.1353     |  17.1 | 45.71
Neigh   | 0.029704   | 0.029991   | 0.030264   |   0.1 |  0.32
Comm    | 0.94364    | 1.0431     | 1.1504     |   4.4 | 11.22
Output  | 8.063e-05  | 8.2485e-05 | 8.569e-05  |   0.0 |  0.00
Modify  | 0.93893    | 1.1375     | 1.2208     |   6.2 | 12.24
Other   |            | 0.1424     |            |       |  1.53

Nlocal:    24 ave 35 max 16 min
Histogram: 3 7 16 31 30 22 13 3 1 2
Nghost:    2889.65 ave 2928 max 2852 min
Histogram: 2 8 15 13 27 27 19 8 5 4
Neighs:    9030.92 ave 13977 max 5795 min
Histogram: 6 12 18 35 22 19 9 3 3 1

Total # of neighbors = 1155958
Ave neighs/atom = 376.288
Ave special neighs/atom = 1.95312
Neighbor list builds = 95
Dangerous builds = 0
timestep 0.5
run ${Ninptpre}
run 10000
PPPM initialization ...
  extracting TIP4P info from pair style
  using 12-bit tables for long-range coulomb (../kspace.cpp:321)
  G vector (1/distance) = 0.311169
  grid = 30 30 30
  stencil order = 5
  estimated absolute RMS force accuracy = 0.00355293
  estimated relative force accuracy = 1.06995e-05
  using double precision FFTs
  3d grid and FFT values/proc = 2475 256
Per MPI rank memory allocation (min/avg/max) = 7.955 | 8.198 | 8.218 Mbytes
Step Temp E_pair E_mol TotEng Press Volume 
   40000    296.67727   -15005.515            0    -13174.05   -768.50536    31857.685 
   50000     292.1812   -14973.382            0   -13169.673   -775.19902    31973.798 
Loop time of 10.138 on 128 procs for 10000 steps with 3072 atoms

Performance: 42.612 ns/day, 0.563 hours/ns, 986.385 timesteps/s
99.4% CPU use with 128 MPI tasks x no OpenMP threads

MPI task timing breakdown:
Section |  min time  |  avg time  |  max time  |%varavg| %total
---------------------------------------------------------------
Pair    | 1.8238     | 2.7259     | 3.4858     |  19.3 | 26.89
Bond    | 0.00096063 | 0.0011179  | 0.0017467  |   0.4 |  0.01
Kspace  | 3.6932     | 4.4498     | 5.3369     |  15.0 | 43.89
Neigh   | 0.074733   | 0.075187   | 0.075851   |   0.1 |  0.74
Comm    | 1.0213     | 1.3617     | 1.6566     |  18.8 | 13.43
Output  | 7.7785e-05 | 8.0999e-05 | 9.4838e-05 |   0.0 |  0.00
Modify  | 0.98179    | 1.363      | 1.7105     |  19.5 | 13.44
Other   |            | 0.1613     |            |       |  1.59

Nlocal:    24 ave 32 max 17 min
Histogram: 4 3 21 18 32 11 19 9 9 2
Nghost:    2903.7 ave 2933 max 2867 min
Histogram: 2 9 5 18 15 20 26 12 13 8
Neighs:    9071.51 ave 11834 max 6188 min
Histogram: 4 9 13 18 15 17 19 18 10 5

Total # of neighbors = 1161153
Ave neighs/atom = 377.979
Ave special neighs/atom = 1.95312
Neighbor list builds = 242
Dangerous builds = 0
reset_timestep 0

# continuing the initialization with the final value of timestep
unfix integrate
fix integrate all npt temp ${Temp} ${Temp} 100.0 iso ${Pres} ${Pres} 1000.0
fix integrate all npt temp 298 ${Temp} 100.0 iso ${Pres} ${Pres} 1000.0
fix integrate all npt temp 298 298 100.0 iso ${Pres} ${Pres} 1000.0
fix integrate all npt temp 298 298 100.0 iso 1 ${Pres} 1000.0
fix integrate all npt temp 298 298 100.0 iso 1 1 1000.0
#fix integrate all rigid/npt/small molecule temp ${Temp} ${Temp} 100.0 iso ${Pres} ${Pres} 1000.0

timestep ${tstep}
timestep 2
run ${Ninpt}
run 5000000
PPPM initialization ...
  extracting TIP4P info from pair style
  using 12-bit tables for long-range coulomb (../kspace.cpp:321)
  G vector (1/distance) = 0.311082
  grid = 30 30 30
  stencil order = 5
  estimated absolute RMS force accuracy = 0.00356578
  estimated relative force accuracy = 1.07382e-05
  using double precision FFTs
  3d grid and FFT values/proc = 2475 256
Per MPI rank memory allocation (min/avg/max) = 8.2 | 8.211 | 8.218 Mbytes
Step Temp E_pair E_mol TotEng Press Volume 
       0     292.1812   -14973.383            0   -13169.673   -492.84135    31973.798 
   10000    288.14427    -15077.64            0   -13298.851    63.841962    31994.805 
   20000    303.71549    -15083.14            0   -13208.227   -173.28818    32004.306 
   30000    294.42407   -15099.906            0   -13282.351   -297.11141    31761.448 
   40000    285.05981   -15001.677            0   -13241.929    -897.5947    32184.241 
   50000    304.62856   -15055.664            0   -13175.113    416.34743    31712.989 
   60000    297.86886   -15036.028            0   -13197.206   -719.20732    32278.677 
   70000    295.12494   -15114.669            0   -13292.787    829.30366    31175.103 
   80000    296.27275    -15007.32            0   -13178.352   -350.18155    31822.411 
   90000    300.13781   -15039.555            0   -13186.727    1169.1334    31717.558 
  100000    299.17424   -15023.257            0   -13176.377   -374.68115    31488.664 
  110000    287.48029   -14960.698            0   -13186.008   -824.16291    31820.805 
  120000    300.96733   -14953.069            0    -13095.12    185.64061    31988.353 
  130000    298.58527   -14914.156            0   -13070.912   -105.80461    31794.509 
  140000    295.01445   -14989.519            0   -13168.319    381.67084    31918.348 
  150000    300.46618   -15047.508            0   -13192.653   -269.02149    31755.918 
  160000    286.88648   -15086.928            0   -13315.904   -319.62827    31765.076 
  170000    295.91724   -15101.085            0   -13274.312    496.62207     31632.04 
  180000    297.41985   -15025.569            0   -13189.519    397.15073     31400.34 
  190000    303.84999   -15050.312            0   -13174.567    945.60324    31472.835 
  200000    306.44241   -14880.201            0   -12988.453    571.63209    31451.476 
  210000    290.64507   -15074.622            0   -13280.396    154.81058     31575.41 
  220000    294.99847   -15110.412            0    -13289.31   -21.325805    31584.036 
  230000    290.59931   -15126.646            0   -13332.702   -81.931494    31429.244 
  240000    302.57458   -15003.301            0    -13135.43    18.554514    31823.147 
  250000    306.19423    -15009.29            0   -13119.074   -273.54622    31867.755 
  260000    305.49403    -15006.83            0   -13120.936    289.67312    31645.381 
  270000     301.1899   -14981.476            0   -13122.153    543.01511    31328.126 
  280000    289.69262   -15080.557            0    -13292.21    134.54407    31157.579 
  290000    300.11044   -14994.901            0   -13142.241   -211.98527    32007.692 
  300000    299.26432   -14963.769            0   -13116.333    858.79267    31799.728 
  310000    303.05614   -15043.452            0   -13172.609   -808.32664    31978.081 
  320000    299.04128   -15050.977            0   -13204.918    421.44066    31858.387 
  330000    301.35855   -15010.815            0   -13150.451    471.17205    31944.016 
  340000    303.73826   -15039.665            0    -13164.61   -939.96262    31882.119 
  350000    285.70517   -15034.401            0   -13270.669    777.76665    31691.183 
  360000    294.75271   -14979.929            0   -13160.344    771.12416    32069.238 
  370000    302.16829   -15020.263            0   -13154.901    332.21178    31786.036 
  380000    293.82468   -15024.489            0   -13210.634    -168.3014      31989.3 
  390000    297.70755   -15092.983            0   -13255.158     121.1722    31698.495 
  400000    298.88056   -15015.793            0   -13170.727    25.160054    32250.788 
  410000     297.4039   -14997.147            0   -13161.196    179.40957    31629.096 
  420000    299.22653    -14943.32            0   -13096.118   -316.91963    32467.998 
  430000    297.01279   -15045.545            0   -13212.009    49.418349     31945.18 
  440000    299.65965   -15002.822            0   -13152.945    180.66099    31493.562 
  450000    301.39226   -15030.844            0   -13170.272   -241.94293    32211.338 
  460000    297.56894   -14982.522            0   -13145.553   -580.39903     31881.47 
  470000     298.5777   -15076.878            0   -13233.681    93.620237    31556.662 
  480000     289.1249    -15080.29            0   -13295.447    89.756898    32161.073 
  490000    307.27695   -15089.825            0   -13192.925    143.70925     31174.61 
  500000    300.14584   -14980.533            0   -13127.655    879.18723    31685.613 
  510000    300.42383   -15084.569            0   -13229.975    245.37643    31500.967 
  520000    289.18073   -14988.701            0   -13203.514    520.05841    31697.623 
  530000    300.40112    -15013.51            0   -13159.057   -574.66843    32043.558 
  540000    299.14348   -15077.482            0   -13230.792   -102.36611    31886.358 
  550000    295.74796   -15107.829            0     -13282.1    921.48485    31393.643 
  560000    298.09669   -15030.416            0   -13190.188   -64.265737     31704.43 
  570000    300.39931   -15103.588            0   -13249.146    57.457399    31689.398 
  580000    306.18695   -15105.329            0   -13215.158    118.99592    31839.255 
  590000    295.32382   -14989.276            0   -13166.166   -663.71435    32139.838 
  600000    303.66207   -14958.638            0   -13084.054    36.648051    32066.588 
  610000    289.42676   -14968.862            0   -13182.156    463.77705    31929.916 
  620000    304.04876   -15047.823            0   -13170.852   -45.992173    31585.083 
  630000    292.33885   -15015.083            0     -13210.4   -89.661264    31686.695 
  640000    294.39497   -15030.401            0   -13213.025    -456.6071    31662.892 
  650000    295.93939   -15056.497            0   -13229.587   -4.9004715    31772.837 
  660000    296.66094   -15027.659            0   -13196.295    40.491999    31674.496 
  670000      299.116   -15016.326            0   -13169.806   -898.70044    32130.987 
  680000    300.45953   -15057.947            0   -13203.133   -865.37881    32328.978 
  690000    296.94545   -14994.274            0   -13161.153    583.72421    31876.598 
  700000    302.37042   -15083.729            0   -13217.119   -519.46376    32117.874 
  710000    295.44558   -15115.572            0   -13291.711    13.434407    31813.403 
  720000     288.6858   -15018.934            0   -13236.802    422.32249    31438.616 
  730000    289.89339   -15070.197            0    -13280.61   -640.83582    31897.975 
  740000    294.79751   -15100.974            0   -13281.113    317.35181    31304.814 
  750000     294.6665   -15047.127            0   -13228.075   -169.37089    31810.735 
  760000    290.64688   -14950.004            0   -13155.766    453.46602    31947.774 
  770000    304.41216   -15088.368            0   -13209.153    211.22198    31861.696 
  780000    299.39534   -15169.685            0    -13321.44    597.51809    31589.549 
  790000    292.39442   -15084.592            0   -13279.566   -127.16802    32117.389 
  800000    305.64316   -15077.601            0   -13190.787    171.21062    31784.283 
  810000    301.37568   -15083.421            0   -13222.952    844.47491    31425.566 
  820000    292.37373   -15041.115            0   -13236.216   -564.95149    32107.697 
  830000    288.15429   -15082.635            0   -13303.784   -501.13722    31886.026 
  840000    286.98633   -15059.358            0   -13287.717   -518.28292    31648.082 
  850000    300.98958   -15059.684            0   -13201.598    291.06741    31604.584 
  860000    294.70731   -15005.045            0    -13185.74   -315.80484    31920.577 
  870000    303.70021    -14967.61            0   -13092.791    667.08642    31468.542 
  880000    301.38846   -15008.131            0   -13147.583    445.13078    31904.394 
  890000    293.73485   -15067.978            0   -13254.677    282.95898    31450.906 
  900000    292.32557   -15087.281            0    -13282.68     207.1984    31634.208 
  910000    296.99113   -14992.725            0   -13159.323    289.39221     31497.12 
  920000    299.26831   -14969.878            0   -13122.418   -701.90728    31857.456 
  930000    292.63727   -14929.645            0    -13123.12    7.1470582     31741.85 
  940000    301.76546   -15074.979            0   -13212.104   -859.10427    32220.301 
  950000    294.74975   -15002.594            0   -13183.027   -480.76891    31982.068 
  960000    298.46924   -14983.049            0   -13140.522    330.43388     31717.31 
  970000    299.29019   -15120.743            0   -13273.147    713.55837    31851.347 
  980000    300.26497   -15052.611            0   -13198.998    41.684314    31841.553 
  990000    302.34989   -14972.438            0   -13105.954   -17.197033    31565.543 
 1000000    301.56982   -14991.177            0   -13129.509   -857.60453    31913.784 
 1010000    304.96269    -14988.62            0   -13106.007   -509.29279    31563.649 
 1020000    298.55039    -15027.89            0   -13184.861   -64.784873    31796.968 
 1030000    304.30592   -15112.452            0   -13233.893     76.93196    31781.535 
 1040000    298.45071   -15003.155            0   -13160.742    164.41594    31328.101 
 1050000    300.01855   -15007.877            0   -13155.785    210.59693    31748.291 
 1060000    308.81035   -15082.765            0   -13176.399   -23.506393    31932.538 
 1070000    298.23167   -15019.491            0    -13178.43   -67.017791    32044.224 
 1080000    303.88632   -15094.051            0   -13218.082   -161.39421    31575.296 
 1090000     298.3843   -14978.159            0   -13136.156    776.55408    31840.492 
 1100000     292.8771   -15031.703            0   -13223.697   -163.43215    31890.042 
 1110000    292.95057   -15090.232            0   -13281.773   -121.09784    31580.719 
 1120000    294.49251   -15080.541            0   -13262.563   -829.78532     31784.94 
 1130000    297.32731   -15062.633            0   -13227.155     36.23423    32088.085 
 1140000    298.67001   -15064.885            0   -13221.118    95.566048    31745.582 
 1150000    292.26066   -15066.935            0   -13262.735  -0.12256098    31809.297 
 1160000    302.87856   -15030.894            0   -13161.147    157.50599    31939.575 
 1170000    301.75999   -15043.852            0    -13181.01   -116.57024    31990.344 
 1180000    293.62435   -15064.883            0   -13252.264    617.51791    31775.141 
 1190000    300.51235   -15048.397            0   -13193.256   -904.75001    31664.593 
 1200000    289.00146   -15016.522            0   -13232.441   -253.46304     31816.24 
 1210000    294.90362   -15049.019            0   -13228.503    825.42201    31522.693 
 1220000    297.86015   -15038.458            0    -13199.69     573.6629    31541.695 
 1230000    295.60515   -15033.397            0    -13208.55    -623.9962    31778.937 
 1240000    288.57405   -15019.392            0    -13237.95   -95.695696    31978.152 
 1250000    297.48059    -15136.76            0   -13300.336   -86.562093     31537.66 
 1260000    300.60941    -15149.55            0   -13293.811     -905.137    31994.063 
 1270000    305.45666   -15023.022            0   -13137.359   -247.15038    31605.088 
 1280000    302.40382   -15013.991            0   -13147.174    -265.4078    32058.922 
 1290000    298.18012    -15029.51            0   -13188.767   -819.27317     31880.35 
 1300000    291.55068   -14901.666            0   -13101.849    241.74941    31910.502 
 1310000    301.81323   -15091.105            0   -13227.934    75.275543    31607.994 
 1320000     293.6626   -15058.694            0   -13245.839   -103.06925    32054.165 
 1330000    305.10125   -15170.633            0   -13287.164    -619.7036    31837.274 
 1340000    295.09604   -15009.922            0   -13188.218    278.07409    32004.622 
 1350000     300.0184   -14952.115            0   -13100.024   -301.72699    32225.305 
 1360000    293.53841    -14990.75            0   -13178.662    607.88946    32122.492 
 1370000    299.14068   -15110.163            0   -13263.491    490.58032    31359.973 
 1380000    306.13507   -15063.826            0   -13173.975    356.38397    31684.042 
 1390000     305.0895   -14969.407            0   -13086.011   -91.872397    32116.696 
 1400000     293.9152   -15068.625            0   -13254.211    217.71868    31564.847 
 1410000    294.25397   -15066.467            0   -13249.962   -242.41953    31893.244 
 1420000    304.76172   -15004.627            0   -13123.255    -157.5155    31771.652 
 1430000    298.09449    -15012.13            0   -13171.916    519.47267    31565.514 
 1440000    296.57742   -14949.831            0   -13118.982   -487.86117    32067.175 
 1450000     296.8352    -15003.55            0    -13171.11    524.98843    31248.108 
 1460000    297.83442   -15030.179            0   -13191.571   -631.02538    32300.478 
 1470000    295.98279    -15053.89            0   -13226.712    1072.6102    31465.582 
 1480000    298.98157   -14993.592            0   -13147.901    506.40292    31869.871 
 1490000    295.45007   -15130.199            0    -13306.31    412.88605    31279.743 
 1500000    300.36583   -15088.027            0   -13233.791   -226.04728    32022.592 
 1510000    291.02189   -15090.918            0   -13294.365    209.28901    31533.019 
 1520000    292.19415   -14971.169            0   -13167.379    -453.9492    31904.469 
 1530000    299.51683   -15070.692            0   -13221.697   -534.99684    31935.925 
 1540000    306.06178   -14993.942            0   -13104.544   -735.65704    32193.927 
 1550000    300.38698   -14968.966            0     -13114.6   -336.13609    31933.478 
 1560000    297.60032    -15063.15            0   -13225.987    183.54581    31752.511 
 1570000    299.39916    -15113.68            0   -13265.412   -574.99456    31959.345 
 1580000    298.10643   -15018.956            0   -13178.668     206.6262    31654.325 
 1590000    291.39472   -14967.192            0   -13168.337    -206.2389    31786.765 
 1600000    301.40364   -15085.221            0   -13224.579   -115.68896    31523.199 
 1610000    287.26719   -15061.681            0   -13288.307   -1060.1571    31833.837 
 1620000    291.78572   -14942.331            0   -13141.063   -221.89165    31922.768 
 1630000    299.83295   -15076.524            0   -13225.578   -531.96237    31619.692 
 1640000    298.43128   -15041.509            0   -13199.216     -823.236     32021.82 
 1650000    305.68462   -15041.467            0   -13154.397   -257.12063    31779.846 
 1660000    303.13299   -15113.866            0   -13242.548    681.81757    31464.649 
 1670000    292.87681   -14989.956            0   -13181.952   -17.213973    32186.458 
 1680000    298.65258   -15067.721            0   -13224.061    19.187021    31726.255 
 1690000     301.1036   -15012.387            0   -13153.597     215.3157    32347.293 
 1700000    286.29285   -15073.959            0     -13306.6   -599.45877    32045.972 
 1710000    297.74911   -15007.743            0   -13169.661   -444.01302    31619.316 
 1720000    305.62714    -14942.95            0   -13056.235    872.70162    31435.339 
 1730000    292.70942   -15055.213            0   -13248.243    175.15709    31445.696 
 1740000    302.13731   -14971.273            0   -13106.101   -135.82954    31942.528 
 1750000     302.2108   -15060.883            0   -13195.258    1147.8183    31554.857 
 1760000    303.48432   -15002.315            0   -13128.828    595.89631    31683.002 
 1770000    295.45466   -14995.554            0   -13171.636     -717.704    31935.602 
 1780000    299.36807   -14924.992            0   -13076.916   -196.45628    32015.941 
 1790000     291.7199   -15059.837            0   -13258.975       -541.5    31891.629 
 1800000     293.6365   -15059.084            0    -13246.39   -933.99861    32217.884 
 1810000    295.14683    -15023.07            0   -13201.053     -48.8507    31920.399 
 1820000    296.58879   -15080.032            0   -13249.113   -138.41309    31707.911 
 1830000    292.02803   -15104.381            0   -13301.616   -515.70132    31952.192 
 1840000    296.35262   -15105.106            0   -13275.645    134.54223    31789.673 
 1850000    294.72393   -15084.116            0   -13264.709    269.34391    32099.859 
 1860000    301.02151   -15070.403            0    -13212.12    430.14132     31728.77 
 1870000    297.72175   -15074.231            0   -13236.318   -13.323304    31409.477 
 1880000    294.84049   -15080.835            0   -13260.709   -805.84059    31873.521 
 1890000    287.81626   -15001.149            0   -13224.385   -669.12548    32100.539 
 1900000    298.41948   -14989.906            0   -13147.686    902.17003    31643.637 
 1910000    297.29015   -14930.366            0   -13095.118   -127.88985    31694.115 
 1920000     301.1344   -15030.161            0   -13171.181    189.44685    31630.921 
 1930000    291.33779   -14991.896            0   -13193.393   -218.98922    32042.424 
 1940000    299.36136   -15122.225            0    -13274.19   -54.185294      32017.9 
 1950000     296.3029   -15083.782            0   -13254.628    31.096597     31910.42 
 1960000    294.01466   -15018.164            0   -13203.136    439.98438    31526.317 
 1970000    301.66472    -15017.84            0   -13155.586   -441.54261    32112.438 
 1980000    299.30207    -15116.31            0   -13268.642   -552.34645    31995.624 
 1990000    292.37554   -15034.145            0   -13229.235    192.79282    31586.497 
 2000000    299.72709   -14989.042            0    -13138.75   -523.61779    31895.099 
 2010000     304.8885   -15068.069            0   -13185.914    1093.5915    31691.089 
 2020000    300.85999   -15052.746            0    -13195.46   -337.65675    31666.175 
 2030000    294.99204    -14936.61            0   -13115.548    629.00199    31841.776 
 2040000    307.23471   -15005.494            0   -13108.855    516.21865    31914.202 
 2050000    298.22811   -15134.146            0   -13293.107    276.94828    31891.318 
 2060000    293.57597   -15061.039            0   -13248.718    154.94802    31561.381 
 2070000     294.8355   -15044.651            0   -13224.556   -372.10759    32212.701 
 2080000     302.3127   -15056.436            0   -13190.182    705.35557    31530.065 
 2090000    309.56219    -15108.81            0   -13197.803    162.75166    31429.359 
 2100000    301.04802   -15111.906            0   -13253.459    407.01636    31740.767 
 2110000    292.38107   -15055.204            0    -13250.26   -190.64544    32480.988 
 2120000    306.02311   -14937.124            0   -13047.965   -416.31961    32218.349 
 2130000     304.3148   -15101.793            0   -13223.179   -34.927176    31727.293 
 2140000    299.24276   -15098.575            0   -13251.272     674.2625    31114.088 
 2150000    302.64807   -15072.978            0   -13204.653    500.63372    31524.116 
 2160000    307.09335   -15075.177            0    -13179.41     855.0514    31784.035 
 2170000    300.58984   -15095.326            0   -13239.708    704.92356    31522.306 
 2180000    296.01459   -15053.789            0   -13226.415   -295.22919    31933.569 
 2190000    291.74212   -14997.013            0   -13196.013    82.294284    31811.571 
 2200000    309.29223   -14980.086            0   -13070.746   -877.20472    31912.074 
 2210000    299.73823    -15023.36            0   -13172.998    149.94231     32179.03 
 2220000    296.38833   -15020.952            0    -13191.27    547.53547    31699.274 
 2230000    294.83694   -14965.492            0   -13145.387    67.646772    32200.219 
 2240000    296.39961   -15061.445            0   -13231.694   -334.08971      31775.9 
 2250000     298.0816   -15096.723            0   -13256.588   -208.74707     31614.44 
 2260000    302.07051   -14990.023            0   -13125.264    303.25409    31431.817 
 2270000    295.73484   -14946.776            0   -13121.129    283.61901    31596.268 
 2280000     296.8533    -15071.87            0   -13239.318   -16.423919    32057.047 
 2290000    300.43642   -15079.908            0   -13225.236   -796.44367    31945.052 
 2300000     297.3435   -15102.446            0   -13266.868   -54.504534    31836.279 
 2310000    295.72318    -14950.03            0   -13124.455   -19.235105    31757.138 
 2320000    297.07645   -15078.401            0   -13244.471    131.35876    31620.966 
 2330000     293.2466   -15068.706            0   -13258.419   -203.24801     31734.21 
 2340000    295.70072    -15054.02            0   -13228.584   -160.03692    31901.438 
 2350000    296.78205   -15062.455            0   -13230.343    340.48103    31977.873 
 2360000    298.12311   -15093.828            0   -13253.437    582.50946    31301.046 
 2370000    298.49341   -15088.141            0   -13245.464    319.01331    31719.649 
 2380000    298.28488   -14998.078            0   -13156.689    6.5246416    31529.518 
 2390000    294.94174   -15009.606            0   -13188.855    783.97058    31531.473 
 2400000    298.61646   -15035.791            0   -13192.355    248.60083      31880.9 
 2410000    297.98505   -14996.695            0   -13157.156     283.0043    31827.353 
 2420000    299.68136   -14993.008            0   -13142.997   -7.6102797    31659.038 
 2430000    300.65593   -15031.076            0    -13175.05   -210.13832    31866.451 
 2440000     303.4973   -15123.137            0    -13249.57   -84.960164     31842.71 
 2450000    301.75633   -15155.076            0   -13292.257    222.43114    31553.828 
 2460000    304.37641   -15034.333            0   -13155.339   -466.05691    32091.864 
 2470000     302.9455   -15058.227            0   -13188.066    627.09586    31441.665 
 2480000    301.06338   -15053.826            0   -13195.284     310.0745    31884.376 
 2490000    303.32124   -15068.441            0   -13195.961   -1277.5325    32082.973 
 2500000    301.35188   -15028.166            0   -13167.843   -233.80693    31866.985 
 2510000    298.57365   -15095.235            0   -13252.063   -622.12089    31889.351 
 2520000    300.81835   -15043.504            0   -13186.475   -200.49841     31581.38 
 2530000    290.22144   -15079.072            0   -13287.461    355.65198    31618.074 
 2540000    301.83702    -15054.38            0   -13191.062    452.72154    32118.155 
 2550000    304.11078   -14959.409            0   -13082.055    108.14752    31652.839 
 2560000    311.82253   -14897.779            0   -12972.818    285.15579    31998.366 
 2570000    301.20776   -14922.209            0   -13062.776   -692.17186    32220.779 
 2580000    303.59626   -15014.717            0   -13140.539   -105.84362    31827.024 
 2590000    301.22388    -15054.87            0   -13195.338     135.1778    31722.926 
 2600000    294.46839   -15063.916            0   -13246.086   -771.23791    32111.947 
 2610000    299.03846   -15061.702            0   -13215.661    235.39055     31721.78 
 2620000    303.50751     -15092.4            0    -13218.77   -482.67641    32103.881 
 2630000    287.36738   -14902.429            0   -13128.436    395.83727    31602.282 
 2640000    302.06214   -15080.781            0   -13216.074    684.42484    31522.614 
 2650000    292.33486   -15113.964            0   -13309.305   -914.25043    32238.171 
 2660000    305.82172   -14980.294            0   -13092.378    435.80885    31594.734 
 2670000    290.02169   -15061.956            0   -13271.578    170.88726    31922.491 
 2680000    294.21377   -15001.069            0   -13184.812      243.502    31753.867 
 2690000    302.18312   -15102.619            0   -13237.165    721.62531    31859.272 
 2700000    298.62671   -15028.229            0   -13184.729   -814.08443    31824.075 
 2710000    304.03641   -15016.719            0   -13139.823   -280.03954    31752.766 
 2720000    299.94489   -15007.551            0   -13155.914   -101.77668    31863.407 
 2730000    298.29893   -15047.532            0   -13206.056    133.80618     32014.44 
 2740000    308.51464   -15055.761            0    -13151.22   -238.47502    31934.547 
 2750000    295.52122   -14976.726            0   -13152.397    710.48677    31309.335 
 2760000    288.75276   -14984.508            0   -13201.963   -107.13112    32343.987 
 2770000    298.88078   -15090.136            0   -13245.068    239.20402    31530.022 
 2780000    300.47795   -15072.941            0   -13218.014    30.248683    31765.311 
 2790000    306.18662   -15067.357            0   -13177.188    -161.6122    31529.957 
 2800000     298.5813   -14938.113            0   -13094.893    198.79579    31955.839 
 2810000     297.2534   -15027.045            0   -13192.023   -331.17778    31683.258 
 2820000    301.28025   -15001.432            0   -13141.552   -716.39016    31804.208 
 2830000    301.85623   -15068.039            0   -13204.603    378.31978    32015.913 
 2840000    294.91313   -15019.794            0   -13199.219    623.98658    31432.377 
 2850000    296.42407   -14986.739            0   -13156.836   -864.40867    32393.895 
 2860000    308.68208   -15035.238            0   -13129.664   -479.71444    31904.261 
 2870000    293.56401   -15096.973            0   -13284.727    601.23457    31503.098 
 2880000    308.29333   -15074.454            0    -13171.28   -33.641425    31879.515 
 2890000    300.70269   -14960.943            0   -13104.628   -719.63145    32186.993 
 2900000    292.75706   -15085.403            0   -13278.139    720.01609    31488.843 
 2910000     304.3117   -14996.984            0    -13118.39   -506.67861    32234.062 
 2920000    299.15228   -15076.666            0   -13229.922    980.90297    31625.129 
 2930000    309.74439   -15098.601            0   -13186.469   -626.61024    31654.001 
 2940000    308.17808    -15104.07            0   -13201.608    71.455391    31902.238 
 2950000     296.8698   -15145.287            0   -13312.633   -167.18257    31699.719 
 2960000    298.05667   -15034.601            0    -13194.62    449.61921    32070.285 
 2970000    301.14389   -15023.945            0   -13164.907   -186.91787    31633.792 
 2980000     301.0684   -15029.878            0   -13171.305   -151.58217    31751.654 
 2990000    297.25697   -15063.478            0   -13228.434    -73.08925    31975.182 
 3000000    301.97836   -15073.294            0   -13209.104    237.29601    31628.245 
 3010000    291.32039   -15072.007            0   -13273.611    198.40251    31632.468 
 3020000    296.37518   -15096.317            0   -13266.717    223.17188    31703.805 
 3030000    293.56672   -15125.932            0   -13313.669    -64.40652    32077.926 
 3040000    309.12781   -14914.403            0   -13006.078    689.33681    31568.254 
 3050000    299.56159   -14971.888            0   -13122.617    -1060.622    31906.101 
 3060000    301.80072   -14945.526            0   -13082.432   -3.2281863     32039.66 
 3070000    298.27228   -15075.034            0   -13233.722    10.097369    32473.685 
 3080000    293.56856   -15080.467            0   -13268.193    7.1922525    32014.754 
 3090000    292.48093   -14954.524            0   -13148.964    302.30437      32138.1 
 3100000    303.70446   -15086.276            0    -13211.43   -155.47966    31799.993 
 3110000    296.58719   -15055.862            0   -13224.953    465.19401    31161.768 
 3120000    300.62208   -14950.797            0    -13094.98   -178.19514    32168.213 
 3130000    296.91429   -15079.499            0    -13246.57   -266.38974    31984.204 
 3140000    294.56621   -15053.882            0   -13235.449   -408.97719    31266.745 
 3150000      304.262   -14993.391            0   -13115.104   -82.093886    31856.128 
 3160000    297.74449   -15085.305            0   -13247.252   -640.53803    31937.461 
 3170000    294.45837   -15065.991            0   -13248.224      736.259    31374.486 
 3180000    294.90744   -14981.148            0   -13160.608   -21.675781    32238.416 
 3190000    300.65597   -15016.251            0   -13160.224   -6.2188118    31819.115 
 3200000    290.99456   -14981.694            0    -13185.31   -40.111864    32122.201 
 3210000    305.64431   -15059.113            0   -13172.292   -789.31362    32165.459 
 3220000    307.34587   -15034.208            0   -13136.883    -92.00468    31852.683 
 3230000    295.54733   -15018.869            0    -13194.38    20.755804    31765.291 
 3240000    303.92188    -15027.74            0   -13151.552    302.70434    31610.749 
 3250000    302.43527   -15126.482            0   -13259.471   -324.56934     32541.49 
 3260000    298.59252     -15088.7            0   -13245.412     490.0752    31794.674 
 3270000    313.58112   -15007.206            0   -13071.389    292.76408    31900.567 
 3280000    302.63496    -15007.45            0   -13139.206    243.81167    31841.505 
 3290000    305.68541   -14950.656            0   -13063.582    457.59728    31687.006 
 3300000    296.26571   -15003.653            0   -13174.729   -106.83739    31607.619 
 3310000    302.77573   -15034.238            0   -13165.126   -246.38962    31884.782 
 3320000    304.81663   -15083.024            0   -13201.313    481.38094    31402.781 
 3330000    295.83615   -15002.558            0   -13176.285   -64.537684    32069.197 
 3340000    291.73162   -15117.678            0   -13316.744   -855.11978    31856.365 
 3350000    299.88169   -15037.265            0   -13186.018    630.35542    31871.635 
 3360000    301.66706   -14949.999            0   -13087.731   -18.903385    31865.914 
 3370000    294.58903    -15064.71            0   -13246.136    195.63084    32060.614 
 3380000     296.8185   -15091.987            0    -13259.65    544.21163    31396.164 
 3390000     298.9138   -15208.848            0   -13363.577   -6.2516644    31713.743 
 3400000    297.63471   -15002.488            0   -13165.112   -503.41854    32195.649 
 3410000    303.83208   -14998.902            0   -13123.268    283.50814    31736.402 
 3420000     304.2681   -14966.995            0    -13088.67    803.32407    31762.993 
 3430000    299.36101   -15024.899            0   -13176.867     198.0161    31944.612 
 3440000     295.8029   -14936.489            0   -13110.422   -193.41878    31744.849 
 3450000    300.07119   -15012.783            0   -13160.366    624.94358    31437.658 
 3460000    302.51393   -14937.523            0   -13070.026   -390.98562    32049.724 
 3470000    305.99346   -14973.898            0   -13084.922    204.44063    32166.328 
 3480000    299.55404   -14987.474            0    -13138.25   -304.34943    31835.398 
 3490000    291.19219       -15003            0   -13205.396   -401.95138    31836.302 
 3500000     296.3078   -14962.169            0   -13132.984   -1185.4271    31831.496 
 3510000    298.16201    -14956.78            0   -13116.149   -463.53272     32254.23 
 3520000    289.19182   -15139.539            0   -13354.284    360.95643     31390.06 
 3530000    290.79954   -14993.468            0   -13198.288    381.35164    31495.082 
 3540000    298.82142   -15044.373            0   -13199.671    530.83577      31554.2 
 3550000    285.52181   -15020.222            0   -13257.623    542.30026     31564.25 
 3560000    303.24479   -15076.722            0   -13204.714    -52.13374     31465.91 
 3570000    297.96301   -14984.885            0   -13145.482    158.32693    31721.804 
 3580000    295.74071   -14964.522            0   -13138.838    216.85162    31533.248 
 3590000    296.06465   -15017.027            0   -13189.343   -958.04937     31992.48 
 3600000     298.0873   -14986.991            0   -13146.821   -1148.3763    32416.227 
 3610000     304.0902   -15064.711            0   -13187.484    521.43983    32046.955 
 3620000    293.77009   -15015.765            0   -13202.247   -300.08491    31654.072 
 3630000    295.94985   -15036.351            0   -13209.376    182.39339    31841.209 
 3640000    296.94565   -15088.049            0   -13254.927    -592.2872    32071.605 
 3650000     303.7273   -15031.453            0   -13156.466   -641.99096    31974.666 
 3660000    286.53239   -15017.916            0   -13249.078    236.84971    31864.252 
 3670000    295.17457   -15037.345            0   -13215.156   -628.89146     32281.24 
 3680000    301.60909   -15100.872            0   -13238.961   -359.69374    31644.645 
 3690000    291.81544   -15171.168            0   -13369.716    153.47953    31641.665 
 3700000    292.49161   -14945.039            0   -13139.413    191.65587    32025.773 
 3710000    300.01596   -15034.203            0   -13182.127    127.74328     31451.13 
 3720000    294.79692   -15047.675            0   -13227.817     204.0341     32087.43 
 3730000    310.56145   -15060.415            0   -13143.239    1460.0759    31012.856 
 3740000    299.03311   -14984.249            0    -13138.24    541.61707    31763.269 
 3750000    301.52486   -15111.731            0    -13250.34    873.32443    31541.451 
 3760000    295.66158   -15033.741            0   -13208.546   -827.93259    31939.704 
 3770000    305.72323   -14995.909            0     -13108.6    462.34823    31550.001 
 3780000    292.00709   -15013.797            0   -13211.162    419.93208    32065.243 
 3790000    306.02333   -15052.776            0   -13163.615    193.43238    31846.367 
 3800000    302.96943    -15093.45            0   -13223.142   -326.23113     31955.32 
 3810000    295.61954   -14982.357            0   -13157.421   -671.09322     32234.65 
 3820000     306.0807   -15039.888            0   -13150.373   -245.64077    32122.312 
 3830000    304.17915   -15015.363            0   -13137.586   -661.83669    32184.998 
 3840000    294.83253    -15041.12            0   -13221.043    714.85982    31205.939 
 3850000    298.03969   -15099.949            0   -13260.073    276.67795    31525.493 
 3860000    305.15492   -15060.082            0   -13176.282   -82.089144    32001.933 
 3870000     289.3153   -15099.845            0   -13313.827    106.95906    31506.893 
 3880000     295.7509   -15041.837            0   -13216.091   -224.44487    31287.915 
 3890000    299.79221   -15024.694            0   -13173.999   -451.12167    32075.375 
 3900000     287.9397   -14992.857            0   -13215.331   -291.18141    31929.646 
 3910000    288.26124   -15037.248            0   -13257.737    154.33698    32081.848 
 3920000    293.45776   -15027.759            0   -13216.169   -223.06854    31429.005 
 3930000    303.28486   -15008.236            0   -13135.981    672.96997    31275.155 
 3940000    303.68232   -14993.886            0   -13119.176   -1286.6473    31858.738 
 3950000    298.37555   -15033.832            0   -13191.883   -203.80353     31871.43 
 3960000    300.72454   -14965.821            0   -13109.371   -871.57276    31809.136 
 3970000    294.32042   -15051.005            0   -13234.089    278.75097      31839.2 
 3980000     294.8292   -14932.437            0    -13112.38    70.559839    31690.795 
 3990000    296.23633   -15059.478            0   -13230.734    421.19577      31649.2 
 4000000    296.40637   -15107.652            0   -13277.859    63.739237    31641.268 
 4010000    292.78985   -15122.304            0   -13314.837   -227.04843    32003.901 
 4020000    293.60604   -15087.552            0   -13275.046    298.04491    31510.238 
 4030000    294.56901    -15034.64            0   -13216.189    174.27885      31475.5 
 4040000    290.96033   -15011.658            0   -13215.485    -731.0229    31848.445 
 4050000    291.18739   -15003.406            0   -13205.832    137.82169    31714.604 
 4060000    296.82769   -14980.376            0   -13147.982    16.145992    31752.275 
 4070000    290.58992   -15106.158            0   -13312.272    103.29676    31545.979 
 4080000    306.92481   -15127.142            0   -13232.416    29.221609    31648.778 
 4090000    292.92908   -14957.552            0   -13149.226    58.922072    32007.712 
 4100000    289.55078   -15018.048            0   -13230.576    408.41509    31513.418 
 4110000    288.38904   -15016.903            0   -13236.603   -430.69237    31591.535 
 4120000     300.8976   -15048.561            0   -13191.042   -387.45762    32133.475 
 4130000    295.81673    -15011.08            0   -13184.927    179.23361    31855.789 
 4140000    307.13298   -15051.504            0   -13155.493     751.7284    31651.004 
 4150000    300.88757   -15039.231            0   -13181.775    85.511881     32060.77 
 4160000    301.52651   -14950.039            0   -13088.638    334.19425    31906.634 
 4170000      302.592   -14996.498            0   -13128.519    601.88448    31547.202 
 4180000    303.77495   -15007.949            0   -13132.668    708.54817        31686 
 4190000     300.8531   -15055.872            0   -13198.628    259.22348    31800.107 
 4200000    304.79269    -14941.26            0   -13059.696    1141.3998    31573.315 
 4210000    301.62524   -15013.661            0   -13151.651    189.06782    32061.683 
 4220000    305.28447   -15037.019            0   -13152.419    39.261279    31839.188 
 4230000    295.25448   -15105.034            0   -13282.352    529.69392    31820.319 
 4240000    305.62464   -15051.094            0   -13164.394    291.08831    31839.909 
 4250000    294.14223   -14959.454            0   -13143.638   -84.318938    31979.947 
 4260000    301.28187   -15074.551            0    -13214.66    114.48948    31611.811 
 4270000    302.81742   -15042.227            0   -13172.857   -393.48584     32025.43 
 4280000    304.38919   -15066.917            0   -13187.844    784.36467    31727.966 
 4290000    312.02439   -15025.613            0   -13099.406     262.1082    31700.249 
 4300000    302.29184    -15055.82            0   -13189.695    740.92398    31316.522 
 4310000    300.84133   -15058.776            0   -13201.605    -445.5752    31487.723 
 4320000    287.40811   -15035.231            0   -13260.986    242.06742    32186.541 
 4330000    302.08858   -14995.227            0   -13130.357   -0.2892469    32081.423 
 4340000    288.05389   -14975.197            0   -13196.966   -95.250921     31785.39 
 4350000    308.44143   -15021.037            0   -13116.949   -291.73422    31800.997 
 4360000     299.2086   -15043.711            0   -13196.619    102.11157    31960.122 
 4370000    295.95037   -15072.208            0    -13245.23   -12.320274    31668.979 
 4380000     298.7133    -15117.57            0   -13273.536    143.41773    31856.399 
 4390000    294.02038   -15098.253            0   -13283.189   -100.94294     31956.88 
 4400000     291.2962   -15018.631            0   -13220.385     203.8325    31904.082 
 4410000    298.58606   -15034.791            0   -13191.543    61.235812    32311.924 
 4420000     294.0598   -15044.315            0   -13229.008   -800.12217    32084.496 
 4430000    298.58148   -15108.844            0   -13265.623    782.16391    31622.201 
 4440000    302.53407   -14945.958            0   -13078.337   -255.85068    31955.731 
 4450000    295.98424   -15002.767            0    -13175.58    171.42918    31739.579 
 4460000    292.58059   -15045.594            0   -13239.419    71.048443    32060.174 
 4470000    293.94215   -15033.103            0   -13218.523   -152.33197    31607.118 
 4480000    286.69877   -14922.326            0   -13152.461    223.64791    32014.207 
 4490000     293.1863   -14939.557            0   -13129.643    327.91741    32123.612 
 4500000     289.0208   -15120.603            0   -13336.403   -718.07688    31838.667 
 4510000    294.96932   -14970.881            0    -13149.96   -322.76658     32310.67 
 4520000     301.6664   -15015.887            0   -13153.622    4.1835288    32298.844 
 4530000    300.55496   -15072.216            0   -13216.813    236.42846    31501.132 
 4540000    303.29572   -15019.437            0   -13147.114   -526.92067    31936.523 
 4550000    295.13528   -15013.813            0   -13191.867    -19.85382    31583.323 
 4560000    299.74795   -15118.343            0   -13267.922   -222.65801    31627.863 
 4570000    293.61129   -14980.661            0   -13168.123    85.195244     31903.15 
 4580000    307.86877   -14928.248            0   -13027.694    442.94017      31533.5 
 4590000    302.40894   -15074.946            0   -13208.098   -540.28206    32330.919 
 4600000    308.58311   -15082.371            0   -13177.408   -543.97849    31604.143 
 4610000    293.73326   -15044.881            0    -13231.59   -30.881694    31874.747 
 4620000    293.13832   -14999.348            0   -13189.729   -91.815367    31661.452 
 4630000    302.18037   -15037.597            0    -13172.16   -279.07426    32123.195 
 4640000    300.34291   -15014.426            0   -13160.332    74.941565    31750.145 
 4650000    296.16286    -15051.75            0   -13223.461    314.69301    31719.804 
 4660000    301.01941   -15118.131            0   -13259.861   -50.860816    31512.233 
 4670000    298.48614   -15075.535            0   -13232.903   -898.59829    31792.723 
 4680000    304.19602    -15010.91            0    -13133.03   -4.7923203    32042.401 
 4690000     301.1631   -14999.645            0   -13140.487   -449.49602    32115.334 
 4700000     309.3742   -15045.784            0   -13135.938   -135.34132    31659.241 
 4710000    296.44346   -15103.594            0   -13273.572    820.93957    31256.854 
 4720000    299.77965   -15034.967            0    -13184.35   -1039.5302     32031.41 
 4730000    292.12905   -15120.607            0   -13317.219   -717.72704    31661.089 
 4740000    297.97871   -14995.318            0   -13155.819    783.10792    31734.272 
 4750000    292.72349   -15040.138            0    -13233.08   -543.42258    32092.665 
 4760000    301.16346   -15071.449            0   -13212.289   -794.35173     31948.95 
 4770000    292.15876   -15079.222            0   -13275.651   -142.49352     32002.12 
 4780000    303.08842   -15008.622            0    -13137.58   -695.81766    32207.004 
 4790000    303.39985   -15033.466            0     -13160.5    1094.7993    31272.718 
 4800000    294.14563   -14993.564            0   -13177.727   -870.27847    32172.601 
 4810000    306.38027   -15075.315            0   -13183.951    548.90415    31580.697 
 4820000    304.97423    -14990.03            0   -13107.345    -158.1982    31727.834 
 4830000    296.04347   -14993.131            0   -13165.578    304.67575    32004.838 
 4840000    296.23453   -15072.156            0   -13243.424    58.163079    31598.937 
 4850000    294.44668   -15011.281            0   -13193.586    12.217554    31793.312 
 4860000    300.13292   -14928.479            0   -13075.681   -290.22699    31923.467 
 4870000    307.77222   -15022.702            0   -13122.744   -451.19051    31780.843 
 4880000      297.212   -15044.122            0   -13209.355   -783.93699    31977.084 
 4890000    293.39935   -15057.421            0   -13246.191    557.10108     31718.84 
 4900000    301.45015   -14989.637            0   -13128.708    29.175882      31805.5 
 4910000    295.03978   -15020.058            0   -13198.701    -984.5596    32025.505 
 4920000    301.42929   -15081.167            0   -13220.366    81.519067    32063.337 
 4930000    301.05476   -15027.205            0   -13168.717    17.090095    32023.643 
 4940000    292.92057   -14983.818            0   -13175.544    111.75104    31653.977 
 4950000    292.91228    -15030.44            0   -13222.217   -1073.2285    31851.452 
 4960000    305.15278   -15008.092            0   -13124.306   -292.04476    31896.343 
 4970000    288.37694   -15052.144            0   -13271.919   -1030.5004    32145.319 
 4980000    290.75237   -15078.181            0   -13283.291   -92.510887    32140.483 
 4990000     297.7708   -15103.131            0   -13264.916   -253.61669    31883.228 
 5000000    297.92541   -15030.194            0   -13191.024     445.4135    32003.371 
Loop time of 5057.61 on 128 procs for 5000000 steps with 3072 atoms

Performance: 170.832 ns/day, 0.140 hours/ns, 988.610 timesteps/s
99.4% CPU use with 128 MPI tasks x no OpenMP threads

MPI task timing breakdown:
Section |  min time  |  avg time  |  max time  |%varavg| %total
---------------------------------------------------------------
Pair    | 1167.1     | 1390.3     | 1591.5     | 287.9 | 27.49
Bond    | 0.47377    | 0.57114    | 0.84928    |   8.8 |  0.01
Kspace  | 2065.1     | 2265       | 2478.3     | 222.8 | 44.78
Neigh   | 143.08     | 144.4      | 145.66     |   5.0 |  2.86
Comm    | 527.6      | 573.84     | 629.18     |  95.2 | 11.35
Output  | 0.042111   | 0.042678   | 0.056496   |   0.6 |  0.00
Modify  | 501.56     | 602.59     | 643.53     | 136.2 | 11.91
Other   |            | 80.85      |            |       |  1.60

Nlocal:    24 ave 32 max 15 min
Histogram: 1 6 15 10 26 21 20 13 12 4
Nghost:    2881.67 ave 2911 max 2840 min
Histogram: 1 5 7 11 15 22 24 25 10 8
Neighs:    8976.16 ave 12476 max 5518 min
Histogram: 3 6 21 21 19 15 15 11 10 7

Total # of neighbors = 1148949
Ave neighs/atom = 374.007
Ave special neighs/atom = 1.95312
Neighbor list builds = 437338
Dangerous builds = 0
reset_timestep 0

#################### 2) Obtaining average volume in NPT ######################
# Getting the average volume of the system
variable Volume equal vol
fix VoluAve all ave/time 1 ${Npnpt} ${Npnpt} v_Volume file volume.dat
fix VoluAve all ave/time 1 5000000 ${Npnpt} v_Volume file volume.dat
fix VoluAve all ave/time 1 5000000 5000000 v_Volume file volume.dat


# Thermo style for outputing system properties to the log file
thermo_style custom density
thermo_modify flush yes

variable Dens equal density
fix DensAve all ave/time 1 ${NBR} ${NBR} v_Dens file density.dat
fix DensAve all ave/time 1 100000 ${NBR} v_Dens file density.dat
fix DensAve all ave/time 1 100000 100000 v_Dens file density.dat

run ${Npnpt}
run 5000000
PPPM initialization ...
  extracting TIP4P info from pair style
  using 12-bit tables for long-range coulomb (../kspace.cpp:321)
  G vector (1/distance) = 0.31106
  grid = 30 30 30
  stencil order = 5
  estimated absolute RMS force accuracy = 0.00356905
  estimated relative force accuracy = 1.07481e-05
  using double precision FFTs
  3d grid and FFT values/proc = 2475 256
Per MPI rank memory allocation (min/avg/max) = 8.201 | 8.212 | 8.219 Mbytes
Density 
   1.0740021 
     1.07971 
   1.0706495 
   1.0999823 
     1.08602 
   1.0848297 
   1.0770238 
   1.0795843 
    1.079319 
   1.0740985 
   1.0817862 
   1.0835243 
   1.0788348 
    1.076567 
   1.0705258 
     1.06622 
   1.0909767 
   1.0849196 
   1.0737894 
   1.0788297 
   1.0567667 
   1.0735456 
   1.0798933 
   1.0929873 
   1.0697653 
   1.0949293 
   1.0804131 
   1.0709613 
   1.0968369 
   1.0795598 
   1.0890336 
   1.0821882 
   1.0839703 
   1.0834249 
   1.0782891 
   1.0822838 
   1.0931239 
   1.0987551 
   1.0716349 
   1.0865765 
    1.078644 
   1.0742707 
   1.0813222 
   1.0793414 
   1.0865761 
   1.0786922 
   1.0766601 
   1.0708452 
   1.0859295 
   1.0797199 
   1.0978752 
   1.0748604 
    1.087436 
   1.0922141 
   1.0729412 
   1.0790651 
    1.078371 
   1.0693525 
   1.0761441 
   1.0833123 
   1.0727072 
   1.0720725 
   1.0726954 
   1.0751074 
   1.0816303 
   1.0897951 
   1.0851368 
   1.0744106 
   1.0864354 
   1.0876654 
   1.0829833 
    1.088193 
   1.0789061 
   1.0924804 
   1.0567038 
   1.0964718 
   1.0785757 
   1.0643369 
   1.0674468 
   1.0772931 
   1.0813892 
   1.1039906 
   1.0647957 
   1.0840429 
   1.0759793 
   1.0795628 
   1.0791647 
   1.0906794 
   1.0750078 
   1.0916985 
   1.0705317 
   1.0905937 
   1.0826734 
   1.0757847 
   1.0825239 
   1.0821337 
   1.0907662 
   1.0872051 
   1.0788179 
    1.081764 
   1.0681357 
   1.0845741 
   1.0708035 
   1.0896215 
   1.0843855 
   1.0770583 
   1.0661144 
   1.0837171 
   1.0837195 
    1.076317 
   1.0740055 
   1.0783694 
   1.0786812 
   1.0846884 
    1.081668 
   1.0722848 
   1.0693533 
   1.0931619 
   1.0865841 
   1.0861781 
   1.0823053 
   1.0814844 
   1.0940844 
   1.0789062 
   1.0672961 
    1.078903 
   1.0844395 
    1.055036 
   1.0857767 
   1.0866703 
   1.0841834 
    1.065512 
   1.0919787 
   1.0812181 
   1.0881272 
   1.0737896 
   1.0895879 
   1.0747781 
   1.0708783 
   1.0895457 
   1.0794049 
   1.0895829 
    1.073768 
   1.0798621 
   1.0850415 
    1.090004 
   1.0705539 
   1.0984942 
   1.0801513 
   1.0933158 
   1.0989413 
   1.0848511 
    1.087557 
    1.089238 
   1.0876904 
   1.0572288 
    1.075318 
   1.0937184 
   1.0692167 
   1.0796229 
   1.0806841 
   1.0777053 
   1.0809925 
   1.1008104 
   1.0688317 
    1.084621 
   1.0902583 
   1.0874788 
    1.076238 
   1.0833066 
   1.0825705 
   1.0801451 
   1.0744799 
   1.0788301 
   1.0629228 
   1.0942936 
   1.0858537 
   1.0885687 
   1.0724744 
   1.0815214 
    1.073744 
   1.0783198 
   1.0910521 
   1.0792602 
   1.0821615 
   1.0636224 
   1.0847248 
   1.0781457 
   1.0798612 
   1.0799179 
   1.1017444 
   1.0824351 
   1.0922758 
    1.070567 
   1.0814546 
   1.0802011 
    1.084264 
   1.0831619 
   1.0862124 
   1.0730312 
   1.0856993 
   1.0697146 
   1.0779704 
   1.0806269 
    1.079073 
   1.0711035 
    1.092288 
    1.081667 
   1.0700429 
   1.0846268 
   1.0797638 
   1.0926939 
   1.0754864 
   1.0764106 
   1.0733662 
   1.0860346 
   1.0820116 
   1.0697192 
   1.0868071 
   1.0847271 
    1.073276 
   1.0832209 
   1.0822415 
   1.0801402 
   1.0798156 
   1.0912216 
   1.0872941 
   1.0819769 
   1.0816073 
   1.0741048 
   1.0850011 
   1.0644239 
   1.0722743 
   1.0870341 
   1.0802123 
   1.0894368 
    1.067276 
   1.0788566 
   1.0982498 
   1.0821995 
   1.0669036 
   1.0863596 
    1.076755 
   1.0727393 
   1.0849394 
   1.0865153 
   1.0855825 
   1.0847451 
   1.0798615 
   1.0937549 
   1.0851148 
   1.0871202 
   1.0956902 
   1.0907225 
    1.100714 
   1.0805359 
   1.1061437 
   1.0932933 
   1.0803845 
   1.0899879 
   1.0697599 
   1.0835531 
   1.0891094 
    1.070927 
   1.0722967 
   1.0809485 
   1.0787813 
   1.0853239 
   1.0899405 
    1.084395 
   1.0682516 
   1.0872209 
   1.0846508 
   1.0936555 
   1.0588739 
   1.0681264 
   1.0896663 
   1.0863501 
   1.0811069 
   1.0813388 
   1.0824888 
   1.0887676 
   1.0862927 
   1.0807712 
   1.0718287 
   1.0619705 
   1.0843254 
   1.0738728 
   1.0843529 
   1.0706808 
   1.0909152 
   1.0821525 
     1.08505 
   1.0815503 
   1.0626908 
   1.0900359 
   1.0732396 
   1.0847912 
   1.0810862 
   1.0831534 
   1.0881207 
   1.0771894 
   1.0652304 
   1.0766828 
   1.0803226 
   1.0698129 
   1.0835404 
   1.0739261 
   1.0810361 
   1.0663022 
   1.0995179 
   1.0818077 
   1.0756989 
   1.0853056 
    1.090294 
   1.0938418 
   1.0662613 
   1.0874746 
   1.0655853 
   1.0910922 
     1.07454 
   1.0809279 
   1.0814652 
   1.0910736 
   1.0948343 
    1.071923 
   1.0841804 
   1.0882408 
   1.0839622 
    1.085311 
   1.0776482 
   1.0782795 
   1.0981478 
   1.0916122 
   1.0847786 
   1.0676022 
   1.0686895 
   1.0785694 
   1.0842756 
   1.0731066 
   1.0718336 
   1.0736576 
   1.0749985 
   1.0760013 
   1.0857634 
   1.0935255 
    1.095497 
   1.0800214 
   1.0796138 
    1.058978 
   1.0867917 
   1.0758435 
    1.077978 
   1.0770418 
   1.1001258 
   1.0859323 
    1.074443 
   1.0723115 
   1.0735924 
   1.0654112 
   1.0845175 
   1.0838121 
   1.0839936 
   1.0839458 
   1.0778513 
   1.0777617 
   1.1025793 
   1.0787137 
   1.0814869 
   1.0685111 
    1.059817 
   1.0755844 
   1.0790612 
   1.0950818 
   1.0691287 
   1.0820573 
   1.0815078 
   1.0610454 
   1.0763651 
   1.0714178 
   1.0774879 
   1.0902733 
   1.0882448 
   1.0765688 
   1.0663274 
    1.081502 
   1.0773221 
   1.0949837 
   1.0828897 
   1.0631905 
   1.0816179 
   1.0893967 
     1.08937 
   1.0637791 
   1.0606095 
    1.088168 
   1.0881965 
   1.0780678 
   1.0855355 
   1.0768804 
   1.0985947 
   1.0777454 
   1.0903294 
   1.0791779 
   1.0765407 
   1.0744016 
   1.0826141 
   1.0824065 
   1.0739505 
   1.0878736 
   1.0724532 
   1.0756725 
   1.0696924 
   1.0834142 
   1.0739352 
   1.0759617 
   1.0789594 
   1.0817812 
   1.0947268 
   1.0582971 
   1.0829326 
   1.0754915 
    1.077143 
   1.0835717 
   1.0843184 
   1.0776936 
   1.1089393 
   1.0836991 
   1.0947805 
   1.0843345 
   1.0751915 
   1.0905156 
   1.0847096 
   1.0701703 
   1.0742223 
   1.0925031 
   1.0804406 
   1.0838771 
   1.0780979 
   1.0741608 
   1.0769456 
   1.0823163 
     1.09312 
   1.0887487 
   1.0897319 
   1.0828558 
   1.0782949 
   1.0850899 
    1.083544 
   1.0743274 
   1.0802703 
   1.0903526 
   1.0971686 
   1.0882319 
   1.0885112 
   1.0711856 
    1.083772 
   1.0816419 
   1.0775525 
   1.0907976 
   1.0734638 
   1.0711954 
   1.0749432 
    1.062807 
   1.0807724 
     1.07454 
   1.0746034 
   1.0863063 
   1.0662661 
   1.0794473 
   1.0735719 
   1.0933983 
   1.0946052 
    1.086098 
    1.096422 
   1.0929928 
   1.0793268 
   1.0675903 
   1.0878547 
   1.0701399 
    1.093158 
   1.0797989 
   1.0801361 
   1.0633047 
   1.0812381 
   1.0790935 
   1.0861766 
   1.0942422 
   1.0752693 
   1.0694957 
   1.0788773 
   1.0621553 
   1.0959381 
   1.0931594 
   1.0772553 
    1.089199 
   1.0722257 
   1.0837665 
   1.0820176 
   1.0705847 
   1.0975894 
Loop time of 5123.17 on 128 procs for 5000000 steps with 3072 atoms

Performance: 168.646 ns/day, 0.142 hours/ns, 975.958 timesteps/s
99.4% CPU use with 128 MPI tasks x no OpenMP threads

MPI task timing breakdown:
Section |  min time  |  avg time  |  max time  |%varavg| %total
---------------------------------------------------------------
Pair    | 1171.1     | 1388.7     | 1581.2     | 288.5 | 27.11
Bond    | 0.46807    | 0.56785    | 0.80027    |   9.0 |  0.01
Kspace  | 2081       | 2279.7     | 2490.6     | 222.5 | 44.50
Neigh   | 143.75     | 144.99     | 146.27     |   5.5 |  2.83
Comm    | 524.74     | 571.77     | 625.85     |  96.4 | 11.16
Output  | 0.016707   | 0.020615   | 0.035169   |   1.8 |  0.00
Modify  | 555.65     | 655.17     | 695.36     | 130.4 | 12.79
Other   |            | 82.27      |            |       |  1.61

Nlocal:    24 ave 36 max 15 min
Histogram: 5 6 18 36 23 16 16 5 2 1
Nghost:    2923.04 ave 2951 max 2896 min
Histogram: 8 7 9 22 22 16 21 9 10 4
Neighs:    9188.29 ave 14049 max 4664 min
Histogram: 1 6 9 30 22 31 15 11 2 1

Total # of neighbors = 1176101
Ave neighs/atom = 382.845
Ave special neighs/atom = 1.95312
Neighbor list builds = 437126
Dangerous builds = 0
reset_timestep 0

#################### 3) Initializing the NVT ensemble ####################
# scaling the size of the system to the average volume
variable sidesize equal (f_VoluAve^(1.0/3.0))    # get the volume
variable xlow equal xlo
variable ylow equal ylo
variable zlow equal zlo
variable xhig equal (xlo+${sidesize})
variable xhig equal (xlo+31.6853385317208)
variable yhig equal (ylo+${sidesize})
variable yhig equal (ylo+31.6853385317208)
variable zhig equal (zlo+${sidesize})
variable zhig equal (zlo+31.6853385317208)
change_box all x final ${xlow} ${xhig} y final ${ylow} ${yhig} z final ${zlow} ${zhig}
change_box all x final 0.688663045126464 ${xhig} y final ${ylow} ${yhig} z final ${zlow} ${zhig}
change_box all x final 0.688663045126464 32.3740015768473 y final ${ylow} ${yhig} z final ${zlow} ${zhig}
change_box all x final 0.688663045126464 32.3740015768473 y final 0.688663045126464 ${yhig} z final ${zlow} ${zhig}
change_box all x final 0.688663045126464 32.3740015768473 y final 0.688663045126464 32.3740015768473 z final ${zlow} ${zhig}
change_box all x final 0.688663045126464 32.3740015768473 y final 0.688663045126464 32.3740015768473 z final 0.688663045126464 ${zhig}
change_box all x final 0.688663045126464 32.3740015768473 y final 0.688663045126464 32.3740015768473 z final 0.688663045126464 32.3740015768473
  orthogonal box = (0.688663 0.688663 0.688663) to (32.374 32.2087 32.2087)
  orthogonal box = (0.688663 0.688663 0.688663) to (32.374 32.374 32.2087)
  orthogonal box = (0.688663 0.688663 0.688663) to (32.374 32.374 32.374)
unfix DensAve
unfix VoluAve

# changing the ensemble to NVT
unfix integrate
fix integrate all nvt temp ${Temp} ${Temp} 100.0
fix integrate all nvt temp 298 ${Temp} 100.0
fix integrate all nvt temp 298 298 100.0


# Initializing the whole system with very small timesteps in the NVT ensemble
timestep 0.001
run ${Ninvtpre}
run 10000
PPPM initialization ...
  extracting TIP4P info from pair style
  using 12-bit tables for long-range coulomb (../kspace.cpp:321)
  G vector (1/distance) = 0.311205
  grid = 30 30 30
  stencil order = 5
  estimated absolute RMS force accuracy = 0.00354775
  estimated relative force accuracy = 1.06839e-05
  using double precision FFTs
  3d grid and FFT values/proc = 2475 256
Per MPI rank memory allocation (min/avg/max) = 8.201 | 8.212 | 8.219 Mbytes
Density 
   1.0805026 
   1.0805026 
Loop time of 7.96583 on 128 procs for 10000 steps with 3072 atoms

Performance: 0.108 ns/day, 221.273 hours/ns, 1255.363 timesteps/s
99.4% CPU use with 128 MPI tasks x no OpenMP threads

MPI task timing breakdown:
Section |  min time  |  avg time  |  max time  |%varavg| %total
---------------------------------------------------------------
Pair    | 1.1099     | 2.0465     | 3.1349     |  26.5 | 25.69
Bond    | 0.00068984 | 0.00082841 | 0.0013229  |   0.0 |  0.01
Kspace  | 2.8846     | 3.9834     | 4.9064     |  18.8 | 50.01
Neigh   | 0          | 0          | 0          |   0.0 |  0.00
Comm    | 0.96905    | 1.065      | 1.1399     |   3.9 | 13.37
Output  | 2.0839e-05 | 3.2828e-05 | 7.0662e-05 |   0.0 |  0.00
Modify  | 0.66188    | 0.76143    | 0.81967    |   3.8 |  9.56
Other   |            | 0.1086     |            |       |  1.36

Nlocal:    24 ave 35 max 15 min
Histogram: 4 4 15 22 26 22 23 6 5 1
Nghost:    2889 ave 2916 max 2861 min
Histogram: 2 9 11 21 15 30 13 11 13 3
Neighs:    9046.7 ave 13388 max 5184 min
Histogram: 4 6 16 20 25 30 10 12 4 1

Total # of neighbors = 1157977
Ave neighs/atom = 376.946
Ave special neighs/atom = 1.95312
Neighbor list builds = 0
Dangerous builds = 0
timestep 0.01
run ${Ninvtpre}
run 10000
PPPM initialization ...
  extracting TIP4P info from pair style
  using 12-bit tables for long-range coulomb (../kspace.cpp:321)
  G vector (1/distance) = 0.311205
  grid = 30 30 30
  stencil order = 5
  estimated absolute RMS force accuracy = 0.00354775
  estimated relative force accuracy = 1.06839e-05
  using double precision FFTs
  3d grid and FFT values/proc = 2475 256
Per MPI rank memory allocation (min/avg/max) = 8.201 | 8.212 | 8.219 Mbytes
Density 
   1.0805026 
   1.0805026 
Loop time of 8.01144 on 128 procs for 10000 steps with 3072 atoms

Performance: 1.078 ns/day, 22.254 hours/ns, 1248.216 timesteps/s
99.5% CPU use with 128 MPI tasks x no OpenMP threads

MPI task timing breakdown:
Section |  min time  |  avg time  |  max time  |%varavg| %total
---------------------------------------------------------------
Pair    | 1.1623     | 2.0467     | 3.3        |  26.1 | 25.55
Bond    | 0.0007     | 0.0008262  | 0.001282   |   0.0 |  0.01
Kspace  | 2.8427     | 4.0966     | 4.9697     |  18.3 | 51.14
Neigh   | 0.001258   | 0.0012845  | 0.0013141  |   0.0 |  0.02
Comm    | 0.96046    | 1.0553     | 1.1227     |   3.8 | 13.17
Output  | 2.3203e-05 | 3.0113e-05 | 8.2184e-05 |   0.0 |  0.00
Modify  | 0.62761    | 0.70259    | 0.76091    |   4.1 |  8.77
Other   |            | 0.1081     |            |       |  1.35

Nlocal:    24 ave 35 max 14 min
Histogram: 1 5 12 24 29 33 12 7 4 1
Nghost:    2892.59 ave 2920 max 2868 min
Histogram: 4 9 14 21 21 26 11 14 6 2
Neighs:    9044.38 ave 13827 max 4935 min
Histogram: 3 2 16 24 35 23 14 6 4 1

Total # of neighbors = 1157680
Ave neighs/atom = 376.849
Ave special neighs/atom = 1.95312
Neighbor list builds = 4
Dangerous builds = 0
timestep 0.1
run ${Ninvtpre}
run 10000
PPPM initialization ...
  extracting TIP4P info from pair style
  using 12-bit tables for long-range coulomb (../kspace.cpp:321)
  G vector (1/distance) = 0.311205
  grid = 30 30 30
  stencil order = 5
  estimated absolute RMS force accuracy = 0.00354775
  estimated relative force accuracy = 1.06839e-05
  using double precision FFTs
  3d grid and FFT values/proc = 2475 256
Per MPI rank memory allocation (min/avg/max) = 8.201 | 8.212 | 8.219 Mbytes
Density 
   1.0805026 
   1.0805026 
Loop time of 7.57039 on 128 procs for 10000 steps with 3072 atoms

Performance: 11.413 ns/day, 2.103 hours/ns, 1320.936 timesteps/s
99.5% CPU use with 128 MPI tasks x no OpenMP threads

MPI task timing breakdown:
Section |  min time  |  avg time  |  max time  |%varavg| %total
---------------------------------------------------------------
Pair    | 1.2498     | 2.0549     | 2.8086     |  20.8 | 27.14
Bond    | 0.00069973 | 0.00082452 | 0.0012663  |   0.0 |  0.01
Kspace  | 2.8973     | 3.6743     | 4.4691     |  15.4 | 48.54
Neigh   | 0.013293   | 0.013436   | 0.013613   |   0.1 |  0.18
[...]
98160000      301.393    298.19636    18.867613     10.83301   -15126.955    1860.5766   -13266.378 
98170000    301.38827     298.5318   -374.81455   -11.812323   -15078.716    1860.5474   -13218.168 
98180000    303.64178    298.34625   -212.61984    12.383053   -15075.941    1874.4589   -13201.482 
98190000    297.17212    298.22013   -597.22031   -4.8402377   -15073.649    1834.5201   -13239.129 
98200000    293.77755    298.35267   -695.38769     -35.3645   -14996.377    1813.5645   -13182.813 
98210000    291.60221    297.98748    312.14723   -12.729332    -15053.72    1800.1356   -13253.584 
98220000    296.52602    298.26832   -142.88357     41.15019   -15065.064    1830.5315   -13234.533 
98230000    301.83723    297.82292    354.16301   -73.333211    -15072.93    1863.3189   -13209.611 
98240000    287.46608    297.74954   -491.28598   -11.413044   -15067.026    1774.6022   -13292.424 
98250000    293.39663    297.80879   -160.15491   -32.724653   -15032.351     1811.213   -13221.138 
98260000    302.19203    297.92794   -372.49719   -14.982639   -15062.391    1865.5092   -13196.882 
98270000    301.38607     298.2481    12.685921    80.666409   -15042.633    1860.5338   -13182.099 
98280000      299.046     298.2169    795.76763   -6.3105805   -15004.625     1846.088   -13158.537 
98290000    298.48772    297.97155   -148.79373   -19.800136    -15091.45    1842.6416   -13248.809 
98300000    301.17198    297.44667   -235.58681   -26.458053   -15070.238    1859.2122   -13211.025 
98310000     304.2447    297.40135    12.626798   -54.170948   -15031.078    1878.1809   -13152.897 
98320000    295.26661    297.85632    88.525307   -6.6870017   -15097.076    1822.7569   -13274.319 
98330000    302.37083    298.12822    152.21494   -13.930315   -14959.063     1866.613    -13092.45 
98340000    302.07429    298.04108    300.12267    19.951678   -15054.685    1864.7824   -13189.902 
98350000    290.04159    297.92929    263.96416    114.87885   -15012.611    1790.5015   -13222.109 
98360000    303.81351    298.02231    231.72942    20.974186   -15006.682    1875.5191   -13131.163 
98370000    306.72213    297.91175   -484.77359   -34.231297   -14966.972    1893.4747   -13073.498 
98380000    297.37941    298.66356    239.17631    130.62873    -15038.93    1835.7997    -13203.13 
98390000    300.39305    297.90672   -692.95609   -78.208802    -15092.24    1854.4037   -13237.837 
98400000    299.63332    297.86781   -118.38911    50.014907   -15061.849    1849.7137   -13212.135 
98410000    297.57041    297.88089   -609.17151   -22.847137    -15026.19    1836.9788   -13189.211 
98420000    300.38275    297.91182    284.32299   -150.26558   -14997.954    1854.3401   -13143.614 
98430000    294.95844    297.93815    498.05616   -69.300523   -15060.804    1820.8544    -13239.95 
98440000    294.92752    297.98653   -637.40218   -6.3574426   -15052.388    1820.6635   -13231.724 
98450000    297.89613    297.90274   -548.88404    49.315661   -14986.885    1838.9895   -13147.896 
98460000    305.68288     298.3408   -207.89634   -116.04707   -15008.911    1887.0592   -13121.852 
98470000    296.80697    297.82211    384.58867   -16.682555   -15080.673    1832.2659   -13248.407 
98480000    295.02717    298.23611    -252.2177   -13.522331   -15009.568    1821.2787   -13188.289 
98490000    296.25494    298.55777    541.41934    20.609565   -15050.941    1828.8581   -13222.083 
98500000    305.92583    297.35631   -73.432023   -58.944738   -15156.229     1888.559    -13267.67 
98510000    294.12191    298.55447   -981.92447    -75.08461   -15016.229    1815.6903   -13200.539 
98520000    296.08701    297.94386   -297.28173   -7.2032277   -15049.169    1827.8214   -13221.348 
98530000      299.503    297.91181   -615.48509    14.170104   -15012.972    1848.9092   -13164.062 
98540000    295.03574    298.66083     35.24756   -41.791945   -15031.676    1821.3317   -13210.344 
98550000    289.06011    298.33438   -64.324537    34.749152   -15036.032    1784.4425    -13251.59 
98560000    307.12939    297.95836    69.605537   -20.356572   -15066.203    1895.9888   -13170.214 
98570000    290.18016    297.75128   -113.43434     3.413682   -15037.405    1791.3569   -13246.048 
98580000    292.97275    298.69056   -218.48772    52.045503   -15023.982    1808.5962   -13215.385 
98590000    294.49296    297.81972   -203.22161   -65.701201   -14985.683    1817.9809   -13167.703 
98600000     297.1049    298.13607   -270.48892    19.533528   -15063.036    1834.1051   -13228.931 
98610000    304.76652    298.32868   -133.85944    22.990342   -15007.854    1881.4022   -13126.452 
98620000    294.54244    298.17009    483.77705   -8.7422289   -14937.622    1818.2863   -13119.335 
98630000    298.11928    297.20179   -31.567828    15.442378   -14974.216    1840.3671   -13133.849 
98640000    284.03593    297.98471    334.51615   -75.202497    -15007.34     1753.427   -13253.913 
98650000    289.04032    297.60707    334.42224   -59.304306   -15086.527    1784.3203   -13302.207 
98660000    294.80061    298.12102   -136.40937   -13.547035   -15050.285    1819.8801   -13230.405 
98670000    299.22402    297.84986    167.22401   -39.767322   -15061.743     1847.187   -13214.556 
98680000    294.66056    298.18526    14.445684    79.906476   -15057.339    1819.0155   -13238.323 
98690000      302.967    298.30741    225.13759   -21.598441   -15014.665    1870.2934   -13144.372 
98700000    301.84302    298.42572    669.92109    37.226182   -14909.507    1863.3547   -13046.153 
98710000    297.81704     298.2837   -205.64633    26.564908   -15006.632    1838.5013   -13168.131 
98720000    301.94122    297.94188    24.451296   -6.2791874   -15080.246    1863.9609   -13216.285 
98730000    294.67522    297.93762    845.93592   -33.250542   -15001.211    1819.1061   -13182.105 
98740000    297.21708    298.64459   -226.25323   -14.798448    -15042.44    1834.7976   -13207.642 
98750000    304.51757     297.8827      288.117   -23.704928   -15006.962    1879.8654   -13127.097 
98760000    293.04465    297.76774   -40.041349   -7.6794015   -15013.975    1809.0401   -13204.935 
98770000    299.13107    297.68242   -94.838908   -3.6114083   -15014.899    1846.6131   -13168.286 
98780000    303.22658    297.89827   -427.96624    84.840333    -14970.81    1871.8958   -13098.915 
98790000    296.44418    297.82628     -370.393   -32.054522    -14948.85    1830.0263   -13118.824 
98800000     298.9965    298.50932    8.9823919   -46.975473   -15050.696    1845.7824   -13204.914 
98810000    297.81603     297.8473   -105.24076   -9.0158177   -15002.738     1838.495   -13164.243 
98820000    300.21429     298.2824    362.23736    9.9552343   -15063.026    1853.3002   -13209.726 
98830000    304.37543    297.75842    -351.1018   -70.062135   -15058.832    1878.9879   -13179.844 
98840000    295.12613     298.2039   -243.63693   -18.188535   -15052.972    1821.8897   -13231.083 
98850000    290.64126    297.87099   -311.60303   -143.87251   -15095.019    1794.2034   -13300.816 
98860000    299.06993    298.12848   -88.978724   -64.264492   -15024.815    1846.2357   -13178.579 
98870000    296.57551    297.82011   -413.21224    10.124943   -15019.828     1830.837   -13188.991 
98880000     297.0205    297.68864    210.48559    -67.31063   -15094.427    1833.5841   -13260.843 
98890000     291.1372    298.67401   -720.94225      -44.983   -15057.134    1797.2649   -13259.869 
98900000    298.52883    297.65848    830.96465    65.083687    -15025.99    1842.8954   -13183.094 
98910000    295.60523    298.23565    276.23496   -24.707596   -15020.655    1824.8472   -13195.807 
98920000     300.6326    298.04819   -130.15161   -30.825394   -15095.202    1855.8825   -13239.319 
98930000     293.5547    297.32482    239.39673   -7.6707598   -15034.384    1812.1888   -13222.195 
98940000    294.85333    298.38084   -357.47023    28.448517   -15027.956    1820.2055    -13207.75 
98950000    298.93335     297.6788    385.74762     38.57527   -15006.412    1845.3926    -13161.02 
98960000    297.13971    298.07183    383.72407   -12.208887   -15074.237      1834.32   -13239.917 
98970000    303.36415    298.10264   -90.586606   -23.142052   -15021.666     1872.745   -13148.921 
98980000    302.63519    298.33988    26.293184   -71.978033   -14979.589     1868.245   -13111.344 
98990000    298.58228    297.96906    356.34858   -12.682485   -14975.725    1843.2253     -13132.5 
99000000    295.80965    297.80084    26.636492   -25.628224    -14959.96    1826.1092   -13133.851 
99010000    295.47008    297.95112   -215.35794   -122.39397    -15122.41    1824.0129   -13298.397 
99020000    300.46572    298.16159   -312.54163    44.647965   -14973.482    1854.8523    -13118.63 
99030000    299.20738    297.80706   -294.46632    -78.32067   -15027.772    1847.0842   -13180.688 
99040000    300.64357    298.07821     112.4419   -76.692791   -15071.244    1855.9502   -13215.294 
99050000    299.97559    298.12062   -130.73305    25.265422   -15091.014    1851.8266   -13239.187 
99060000    299.01351    298.12924    80.784105    -58.12424   -15030.086    1845.8874   -13184.198 
99070000     295.5717    298.03067    135.30293    -25.46423   -14975.371    1824.6402   -13150.731 
99080000    294.59574    297.88919    633.30372    64.743049   -14957.151    1818.6154   -13138.536 
99090000    294.47142    298.06662   -555.02329   -43.452551   -15077.246     1817.848   -13259.398 
99100000    297.22376    297.72516    240.92508   -43.914915   -15070.863    1834.8388   -13236.025 
99110000    308.01926    298.17665    172.19701   -33.234635   -14953.195    1901.4822   -13051.713 
99120000    300.41557    297.70556    1208.7711   -36.908075   -15049.706    1854.5427   -13195.163 
99130000    296.76823     298.2586      183.539    33.733757   -15000.446    1832.0267   -13168.419 
99140000    300.64847    297.94962    272.81054    -49.12777   -15060.291    1855.9805    -13204.31 
99150000    299.70888    298.06174    367.60182   -53.035428   -15022.068    1850.1801   -13171.888 
99160000    295.75945    297.85403    102.73371   -17.754101   -15091.509    1825.7993   -13265.709 
99170000    305.58635    298.42457   -126.16708    19.251082   -15017.974    1886.4633   -13131.511 
99180000    298.49556    298.12521   -161.35853   -12.434911   -15042.831      1842.69   -13200.141 
99190000    296.85805    297.37707   -349.30734   -27.110922   -15061.952    1832.5812   -13229.371 
99200000    290.68628    297.72937    -79.98075   -25.716369   -15018.224    1794.4813   -13223.743 
99210000    295.54184    298.19162    -60.24042   -1.9102279   -15102.891    1824.4559   -13278.435 
99220000    287.33222    297.57329    -170.5203    7.1172856   -15091.837    1773.7758   -13318.061 
99230000    302.77549    298.32311    469.08062   -106.60681   -14914.064    1869.1111   -13044.953 
99240000    304.11538    298.38571    383.61783   -43.072743   -14922.183    1877.3826   -13044.801 
99250000    297.14212    298.17876    497.10772   -21.084467   -15044.354    1834.3349   -13210.019 
99260000    294.63518    298.02358   -434.62765   -55.708008   -15044.794    1818.8589   -13225.935 
99270000    300.32212    297.82975    55.530603    -64.23828   -14979.291    1853.9658   -13125.325 
99280000    295.46507    298.01433    410.57203   -41.172158   -15080.325     1823.982   -13256.343 
99290000    291.20083    298.10584   -28.524352    23.873531   -15102.616    1797.6577   -13304.958 
99300000    297.04459    297.94641    443.13235    32.025524   -15009.353    1833.7328    -13175.62 
99310000    297.94924    297.87919   -224.22642   -29.518463   -15074.511    1839.3174   -13235.194 
99320000    299.22875    298.14894    181.42289   -12.754654   -15089.373    1847.2162   -13242.156 
99330000    288.90351     297.9455   -76.045241    45.445149   -15072.402    1783.4758   -13288.926 
99340000    291.87659    297.57596    -580.8695    3.6469516   -14971.372    1801.8294   -13169.543 
99350000    298.16444    297.54212   -702.32077   -50.020303   -15160.283    1840.6459   -13319.637 
99360000    307.04119    298.20441     543.2041   -55.734449    -15070.45    1895.4443   -13175.005 
99370000    298.41899    298.03076    518.82791    18.451027   -14968.809    1842.2173   -13126.591 
99380000    292.68722    298.22378    167.24863    72.864107    -15027.81    1806.8336   -13220.976 
99390000    306.43852    297.79292    859.02893    29.288199   -15117.226    1891.7239   -13225.502 
99400000    293.61098    298.23782   -208.07388    38.271331   -15073.409    1812.5362   -13260.872 
99410000    295.81263    298.21946   -181.88856   -21.276949   -14963.584    1826.1276   -13137.457 
99420000    304.76339    297.94983   -425.49055   -34.835357   -15096.013    1881.3829    -13214.63 
99430000    296.79374    298.07604    277.79596    3.6950004    -15014.15    1832.1842   -13181.966 
99440000    297.30852    297.77677    166.83934   -25.257012   -15001.281    1835.3621   -13165.919 
99450000    299.43249    298.19818     30.02657    77.651284   -15099.002    1848.4739   -13250.528 
99460000     288.9714    298.07157    212.07436   0.87844956   -15051.401    1783.8949   -13267.506 
99470000     298.1647    297.81866   -289.03793    7.5498189   -15076.724    1840.6475   -13236.076 
99480000    298.68949    298.36549   -508.27552    5.2644681   -15011.309    1843.8871   -13167.421 
99490000    287.64699    298.50925   -266.84313     160.1753   -15091.646     1775.719   -13315.928 
99500000     299.8402    297.86969    124.40152   -25.056521   -14985.014    1850.9908   -13134.024 
99510000    290.19991    298.29207   -2.4179332    7.0621047   -15022.897    1791.4788   -13231.418 
99520000    294.84589    298.25783    128.51073    -14.24155    -15035.38    1820.1597   -13215.221 
99530000    300.78485     298.1564   -274.95461    23.031076   -15111.427    1856.8224   -13254.604 
99540000    306.13845    297.85885    199.03311   -36.340696   -15048.787    1889.8715   -13158.915 
99550000    301.54477     298.1558    52.028135    48.082224   -15035.683    1861.5135    -13174.17 
99560000    291.03506    297.88978    69.124391    57.089902   -14954.034    1796.6344   -13157.399 
99570000    308.45187    298.07086    673.16323    5.4984418   -15040.057    1904.1529   -13135.904 
99580000    302.75904    297.85395    484.76987    55.091294   -15017.099    1869.0095    -13148.09 
99590000    300.84135    298.27794    216.62358    29.065455   -15050.666    1857.1711   -13193.495 
99600000    296.72946    297.39345   -327.59162     -39.6452   -15015.344    1831.7874   -13183.557 
99610000    296.71882    298.04532   -613.18316   -55.759548   -15056.331    1831.7217   -13224.609 
99620000    300.22899    298.33248    345.47953   -12.174076   -15010.495    1853.3909   -13157.104 
99630000    309.70887    297.75547    819.36152    22.110042   -15111.864    1911.9127   -13199.951 
99640000     291.7207    298.42772   -427.37598    -3.102459   -15045.265    1800.8671   -13244.398 
99650000     294.8685    297.54694   -266.52711   -5.2462667   -14984.525    1820.2992   -13164.226 
99660000    308.79557    297.50263    46.293543   -61.931892   -15158.049    1906.2746   -13251.775 
99670000    310.48306    297.82087    671.35931    -17.86033   -15011.999    1916.6919   -13095.307 
99680000    301.76405    298.20373   -119.03671   -43.169508   -14988.715    1862.8672   -13125.848 
99690000    303.08478    298.15728    192.46623    43.111167   -15011.073    1871.0204   -13140.053 
99700000      305.212    298.16887    181.05042   -25.058641   -15067.448    1884.1523   -13183.295 
99710000    297.40411    297.67883    432.29479   -62.988932   -15051.043    1835.9522   -13215.091 
99720000    296.96023    298.34191   -767.48862    21.080572   -15095.588     1833.212   -13262.376 
99730000    298.43516    298.09908   -120.09389    -89.39594   -15028.195    1842.3171   -13185.878 
99740000    293.29134    298.42218    138.76931   -23.268628   -15028.982     1810.563   -13218.419 
99750000    298.20079    297.44942   -82.164095   -33.112329   -15094.601    1840.8703    -13253.73 
99760000    311.89974    297.79852    259.22553    48.894133   -15048.691    1925.4375   -13123.254 
99770000     307.4838    298.47679   -94.918078   -16.784328   -15142.401    1898.1767   -13244.224 
99780000    292.27922    298.13145   -179.37595    8.7723622   -14954.617    1804.3149   -13150.302 
99790000    302.50551    298.04512    232.76964   -15.953657   -14968.865    1867.4444    -13101.42 
99800000    298.43699    297.69463    92.612683   -46.425334     -15050.4    1842.3284   -13208.071 
99810000    293.51225    297.81913    172.48808    23.945126   -14999.559    1811.9267   -13187.632 
99820000    298.15288    298.06797   -255.02562    44.744034   -14971.821    1840.5746   -13131.247 
99830000    301.77882    297.78849    -125.8021    -2.542653    -15048.94    1862.9584   -13185.982 
99840000     292.1296    298.06942   -60.500439   -50.085471   -15032.556    1803.3913   -13229.165 
99850000    301.56534    297.86942     245.0746    11.721894   -15072.063    1861.6405   -13210.422 
99860000    301.37408    298.15881    367.67912    66.647641   -14962.297    1860.4598   -13101.837 
99870000    308.23682    297.41694   -330.55061   -43.299007   -15132.096    1902.8253   -13229.271 
99880000    306.28401    297.90129   -817.78284   -75.632719   -15019.935    1890.7701   -13129.165 
99890000    297.08457    297.71609   -1422.1546   -135.01415   -15062.954    1833.9796   -13228.974 
99900000     307.9521    298.19318   -227.87424    57.297037   -15098.702    1901.0677   -13197.635 
99910000    307.19806    297.74198    400.44109     85.08307   -15095.671    1896.4128   -13199.258 
99920000    294.29438     297.8819   -430.38106    59.513778    -15044.08     1816.755   -13227.325 
99930000    292.84523    298.25605   -759.92046   -21.214016   -15106.122    1807.8091   -13298.313 
99940000    300.42045    297.65385   -80.452905   -3.1235435   -15013.137    1854.5729   -13158.564 
99950000    293.97177    298.12484    -121.5365   -62.601415   -15043.929    1814.7635   -13229.166 
99960000     306.5724    298.19164    533.88841    73.945056   -14972.398    1892.5504   -13079.847 
99970000    295.40993    298.50047    172.70776   -86.231382   -15100.633    1823.6416   -13276.992 
99980000    298.29289    298.19462   -317.75798    50.480863   -15050.173    1841.4389   -13208.734 
99990000    301.20739    297.41475   -138.03873    25.528292   -15105.537    1859.4308   -13246.106 
100000000    294.26872    297.80526   -45.925651   -56.344369   -15006.237    1816.5966    -13189.64 
Loop time of 91122.8 on 128 procs for 100000000 steps with 3072 atoms

Performance: 189.634 ns/day, 0.127 hours/ns, 1097.420 timesteps/s
99.3% CPU use with 128 MPI tasks x no OpenMP threads

MPI task timing breakdown:
Section |  min time  |  avg time  |  max time  |%varavg| %total
---------------------------------------------------------------
Pair    | 19417      | 23020      | 26206      |1149.7 | 25.26
Bond    | 8.2614     | 9.583      | 16.997     |  35.9 |  0.01
Kspace  | 38803      | 41978      | 45661      | 861.3 | 46.07
Neigh   | 2882.8     | 2902.3     | 2920.9     |  17.8 |  3.18
Comm    | 11409      | 12224      | 12896      | 331.9 | 13.42
Output  | 4.9742     | 86.415     | 101.63     | 168.7 |  0.09
Modify  | 8725.2     | 9405.2     | 10024      | 331.1 | 10.32
Other   |            | 1497       |            |       |  1.64

Nlocal:    24 ave 34 max 17 min
Histogram: 4 17 19 19 29 25 3 5 4 3
Nghost:    2909.24 ave 2953 max 2868 min
Histogram: 6 7 10 17 28 17 25 11 5 2
Neighs:    9041.34 ave 14106 max 5840 min
Histogram: 10 11 21 34 18 17 8 4 3 2

Total # of neighbors = 1157291
Ave neighs/atom = 376.722
Ave special neighs/atom = 1.95312
Neighbor list builds = 8662027
Dangerous builds = 0

quit
