3072
Atoms. Timestep: 0
O 23.6067 16.5796 27.0967
H 24.0295 15.9053 26.5649
H 24.3319 17.0621 27.4936
O 1.78627 27.2525 17.5535
H 0.856472 27.0686 17.4197
H 1.80861 27.8382 18.3102
O 31.6241 2.60615 2.88934
H 30.9003 2.04023 2.62081
H 31.5158 3.39941 2.36469
O 5.35034 21.9911 23.077
H 4.59173 22.1846 23.6277
H 5.37827 21.0353 23.0342
O 6.759 18.7164 5.75327
H 6.42381 17.8787 5.43367
H 5.98188 19.2685 5.84006
O 11.1246 18.9898 14.3205
H 11.9146 18.4656 14.1895
H 11.2606 19.4224 15.1635
O 20.9952 12.6452 31.809
H 20.8151 13.5044 31.4276
H 21.9363 12.6526 31.9836
O 11.4566 29.6767 4.89063
H 11.3171 28.8964 4.35408
H 10.8185 30.3105 4.56292
O 17.0113 21.4413 2.11598
H 17.3265 22.1883 2.62472
H 16.3775 21.8172 1.50511
O 2.8759 6.82932 29.809
H 2.91744 7.65377 29.3244
H 2.83696 7.093 30.7283
O 16.1345 9.08765 24.251
H 16.7387 9.37565 23.5667
H 15.754 8.2782 23.9101
O 15.995 2.26789 22.2139
H 15.9525 2.94353 22.8906
H 15.1163 1.8885 22.1981
O 17.754 23.8246 6.99284
H 17.0112 24.3487 6.69332
H 17.5448 23.6091 7.9017
O 29.436 23.5783 3.5874
H 29.7689 23.0713 2.84692
H 28.589 23.9101 3.2896
O 18.2199 19.0962 28.0635
H 18.8858 19.1718 27.38
H 18.0307 18.1591 28.1116
O 4.00441 26.0796 22.8284
H 3.45612 25.9306 23.5988
H 4.52171 26.8544 23.0483
O 32.2711 15.0503 22.3704
H 0.847383 15.15 21.4551
H 31.3378 14.841 22.3318
O 15.1499 5.19435 9.83613
H 14.3294 5.67084 9.70944
H 15.2616 4.69029 9.0301
O 14.4856 28.2383 15.0484
H 13.8528 28.3216 15.7618
H 14.3751 27.3413 14.7332
O 19.7531 18.4783 6.13132
H 19.3028 18.935 6.84186
H 20.6521 18.3759 6.44358
O 8.01057 19.7329 10.0432
H 7.0681 19.8517 9.92543
H 8.10816 18.8114 10.2832
O 22.3312 13.6308 21.6093
H 22.569 14.3158 22.2341
H 22.837 12.8669 21.8866
O 26.6386 27.3898 6.76757
H 27.5569 27.4571 6.50574
H 26.2953 26.6593 6.25313
O 4.4926 7.09113 25.1018
H 3.79534 7.7406 25.0108
H 4.03937 6.24824 25.083
O 23.3713 24.1995 24.2584
H 22.6069 24.5347 24.727
H 23.0316 23.4763 23.7313
O 14.584 28.6209 10.6741
H 14.2261 28.5975 9.7866
H 15.5149 28.428 10.5626
O 31.9858 31.1285 15.6473
H 31.1221 31.4872 15.8515
H 0.724452 31.8078 15.1228
O 25.1265 2.879 11.8663
H 24.4917 3.43074 11.4093
H 24.6228 2.11439 12.1455
O 12.0513 6.09748 19.906
H 11.9956 5.14196 19.9161
H 11.2046 6.38367 19.5634
O 19.1703 7.90605 8.59564
H 19.1306 7.11045 8.06491
H 18.2964 7.98304 8.97846
O 21.2526 9.36208 23.2279
H 20.8461 8.50539 23.3583
H 20.7386 9.76789 22.5298
O 27.0099 19.7355 19.9266
H 27.6701 19.2404 19.4415
H 27.4694 20.5207 20.2241
O 27.5662 8.55989 23.6559
H 28.1687 8.73825 24.378
H 27.8414 9.15733 22.9605
O 14.7779 26.1142 25.044
H 15.3962 26.574 24.4761
H 14.4744 26.782 25.6589
O 13.4469 14.5843 18.2025
H 12.8021 14.1542 18.7642
H 14.0198 13.876 17.9088
O 12.9716 29.4463 8.31189
H 12.1387 29.1572 8.6847
H 13.2024 28.7636 7.6819
O 18.1693 6.84156 3.31945
H 18.8406 6.6054 3.95956
H 17.3481 6.54694 3.71319
O 13.6861 19.569 26.0673
H 12.7782 19.7921 25.8622
H 14.1366 19.5966 25.2232
O 16.3595 28.0279 2.69827
H 16.938 28.5005 3.29679
H 15.7069 27.6199 3.26738
O 31.0418 13.4466 0.844223
H 31.3638 13.9144 31.759
H 31.7526 13.516 1.48156
O 27.4156 2.59419 0.949213
H 26.5002 2.45273 0.707864
H 27.4094 3.41315 1.44468
O 1.95227 30.1517 27.0933
H 1.42853 30.946 27.1987
H 1.52717 29.5071 27.659
O 6.69477 26.1449 12.5797
H 6.27208 26.8796 13.0245
H 7.57989 26.1213 12.9433
O 19.0565 17.4467 3.64228
H 19.8061 17.0406 3.20706
H 19.4287 17.8706 4.41564
O 5.62578 18.136 20.5982
H 4.69683 17.9607 20.7484
H 5.962 17.3296 20.2071
O 10.3809 24.0082 7.31488
H 10.9564 24.2856 8.02769
H 10.9481 23.5056 6.73019
O 23.4668 4.95835 19.7301
H 22.8126 5.38342 19.1755
H 24.2751 5.44265 19.562
O 25.5184 12.5605 15.4064
H 25.0898 12.7424 14.5701
H 25.0719 11.7826 15.7407
O 1.80629 20.1885 31.366
H 0.890068 20.4646 31.3431
H 2.1869 20.6799 32.094
O 12.0863 0.706246 31.394
H 13.0027 32.1358 31.2886
H 11.7487 31.8024 32.0686
O 2.16762 1.98929 29.8428
H 1.79644 2.86843 29.7681
H 1.70087 1.59346 30.5788
O 26.0916 16.6228 10.1607
H 25.4499 16.0836 9.69847
H 26.9029 16.5073 9.66604
O 29.7706 19.4373 1.76503
H 30.0058 18.5097 1.78675
H 29.9175 19.7432 2.66007
O 4.90951 28.2586 18.6804
H 5.22777 28.8822 18.0277
H 4.04964 28.5943 18.9338
O 29.0336 20.1432 11.0945
H 28.5707 20.131 11.9323
H 29.6644 19.4261 11.1585
O 30.0313 28.0317 15.1628
H 30.7325 28.3992 14.6248
H 29.4518 28.7726 15.3405
O 19.0282 12.19 16.1446
H 19.4684 11.345 16.0531
H 18.1995 12.0807 15.678
O 24.5873 7.36855 19.2725
H 24.9322 7.81747 18.5007
H 23.7094 7.73185 19.3891
O 13.0963 8.21149 4.51722
H 13.5258 8.03755 5.35477
H 12.9255 9.15329 4.52611
O 5.81829 13.8784 13.2518
H 6.62179 14.1323 12.7978
H 6.0335 13.0465 13.6734
O 15.7898 17.2641 10.4375
H 15.2361 17.0968 9.67476
H 16.6831 17.2454 10.0942
O 29.6885 2.43138 23.0398
H 30.3751 2.84873 22.5196
H 30.1508 1.78381 23.572
O 26.4584 10.7403 12.7174
H 27.066 11.2912 13.211
H 26.9413 9.92822 12.5639
O 27.5025 18.9309 26.2991
H 27.4237 18.9322 25.3452
H 26.6969 18.5148 26.6059
O 20.5474 29.9062 10.857
H 20.1186 30.1325 10.0316
H 20.7581 28.9765 10.771
O 20.1134 7.78832 30.1569
H 19.8626 8.71106 30.2006
H 19.8554 7.4291 31.0058
O 6.9845 32.0826 7.98381
H 7.35793 31.3181 7.54523
H 7.15215 31.9314 8.91399
O 22.1408 16.0987 23.0886
H 21.7927 16.2795 23.9618
H 21.43 16.3359 22.493
O 3.93506 13.7718 1.25551
H 3.02257 13.8555 1.53226
H 3.88462 13.5574 32.0093
O 5.78235 31.9056 4.81761
H 4.93597 31.9339 4.37142
H 5.56205 31.8119 5.74439
O 7.28054 2.07552 3.8537
H 8.03544 1.92721 4.42323
H 6.57229 1.575 4.25879
O 0.994292 27.6578 23.6835
H 1.23779 27.036 22.9977
H 1.76315 27.7013 24.252
O 31.2283 7.71642 23.8603
H 31.9753 7.53568 23.2898
H 31.2827 8.65565 24.0367
O 29.6057 9.28391 19.5155
H 29.0023 8.54158 19.4819
H 29.2709 9.89517 18.8594
O 16.2183 15.5725 31.8814
H 16.4402 14.8808 0.819406
H 15.2613 15.592 31.8751
O 21.3207 13.8525 18.8004
H 21.8398 14.5803 18.4582
H 21.6233 13.7451 19.7022
O 28.1778 1.03991 11.0954
H 27.4601 32.3629 10.5761
H 28.1871 1.97135 10.8751
O 12.9889 3.05005 19.6588
H 13.934 3.12795 19.529
H 12.6762 2.59304 18.8781
O 21.1448 5.38192 18.1142
H 20.8387 5.45954 17.2106
H 20.4201 5.71637 18.6426
O 21.7344 31.8565 3.91187
H 20.8589 32.0064 3.5551
H 21.58 31.5451 4.80375
O 14.5734 28.5235 26.5233
H 13.6221 28.6127 26.4653
H 14.7602 28.5495 27.4617
O 20.7845 21.8493 11.0388
H 20.5522 21.8867 11.9667
H 19.9464 21.9019 10.5794
O 2.60038 9.16078 13.9819
H 1.92366 8.49037 14.0759
H 2.87405 9.09888 13.0667
O 19.6205 16.4834 16.384
H 18.8833 16.953 15.9938
H 20.2832 16.461 15.6936
O 10.5321 16.5377 26.7564
H 9.88439 16.9756 27.3086
H 11.367 16.6898 27.1991
O 26.8227 13.9895 11.6818
H 26.6203 14.9215 11.6
H 25.9727 13.5702 11.8158
O 5.55781 6.45418 18.3842
H 5.61875 7.22249 18.9518
H 4.66487 6.48005 18.0404
O 28.3059 26.3477 29.4615
H 27.5906 25.7635 29.2101
H 28.5036 26.8414 28.6656
O 18.8708 2.21819 5.16684
H 19.2476 2.90066 4.61143
H 18.0328 2.00869 4.75448
O 16.7499 10.7042 18.2736
H 17.4987 11.2617 18.4852
H 16.095 11.3061 17.92
O 18.8738 10.9212 12.5655
H 18.7454 10.0038 12.8065
H 18.0503 11.1778 12.1504
O 10.7494 31.6674 21.5969
H 10.373 30.9148 21.1407
H 10.1316 0.694852 21.4343
O 30.3373 11.5659 8.15942
H 29.6525 12.0237 8.64705
H 29.8752 10.869 7.69356
O 10.4956 10.9097 7.20477
H 9.73739 11.1638 6.67861
H 11.2444 11.2911 6.74646
O 14.2012 6.92633 18.4949
H 13.7923 7.62388 17.9826
H 13.4659 6.43668 18.8634
O 29.9347 7.36539 28.3733
H 29.9695 6.4694 28.7083
H 29 7.56105 28.3081
O 10.2219 17.4521 1.18657
H 10.6117 18.2221 0.772692
H 9.66945 17.8075 1.88272
O 28.1019 11.7437 14.9636
H 28.3711 12.5225 14.4765
H 27.1948 11.9187 15.2138
O 4.20096 17.0534 10.0499
H 3.84821 17.1754 10.9313
H 4.36498 17.9413 9.73202
O 28.4253 32.3233 6.87097
H 28.3191 1.41618 6.3238
H 27.811 31.687 6.50498
O 25.0031 5.71849 8.16975
H 25.4328 6.43242 8.64081
H 24.3958 5.34198 8.80669
O 4.63739 17.0438 27.74
H 4.15773 17.7614 28.1538
H 4.737 17.3164 26.8278
O 5.28037 31.7372 25.9321
H 6.14078 31.4184 25.6596
H 5.3769 1.00361 25.9663
O 3.36917 4.61173 25.0585
H 3.05489 4.55036 24.1564
H 2.57334 4.68297 25.5856
O 30.0739 11.8079 27.8703
H 30.7586 11.1985 27.5942
H 30.1471 11.835 28.8243
O 0.834621 22.3578 4.92237
H 32.1887 22.6702 4.0804
H 31.8957 21.6836 5.19059
O 3.17056 31.875 17.6777
H 2.2441 32.0675 17.5333
H 3.43384 0.787843 18.377
O 14.7336 5.07618 16.5066
H 14.5143 5.66616 17.2277
H 15.4069 4.49824 16.8657
O 11.1139 2.44858 12.6732
H 10.4602 3.14414 12.6018
H 11.8346 2.84588 13.162
O 20.8156 24.6957 25.4871
H 20.5437 23.837 25.811
H 20.2355 25.3143 25.9309
O 4.89925 19.6918 9.39454
H 4.92285 19.597 8.44234
H 4.39234 20.4899 9.54375
O 13.5427 27.6131 21.9136
H 13.9024 28.4957 21.8247
H 14.1887 27.0471 21.4911
O 10.6488 5.6228 14.6582
H 11.3603 6.1866 14.9619
H 10.0062 5.6443 15.3673
O 22.5552 1.51405 28.1865
H 23.4018 1.14856 28.4432
H 22.7052 2.45837 28.1416
O 4.83981 15.6492 14.906
H 5.38898 15.018 14.4409
H 5.37602 16.4403 14.9596
O 26.5627 24.3504 6.69566
H 27.4493 24.2248 6.35751
H 25.9925 24.0104 6.00613
O 12.0684 28.026 24.2623
H 12.2883 28.9552 24.3291
H 12.6667 27.6849 23.5976
O 20.14 16.663 19.0338
H 21.0564 16.9193 19.1376
H 20.0647 16.4087 18.1141
O 19.6378 5.56867 22.1435
H 19.5492 6.45127 22.5032
H 19.1008 5.02106 22.7162
O 31.0995 16.9027 7.04119
H 31.6149 17.4128 7.66599
H 30.341 17.4541 6.84914
O 14.483 11.0011 23.126
H 15.0083 10.469 23.7237
H 14.4741 11.8715 23.5243
O 15.479 7.03704 21.3859
H 15.0367 7.07134 20.5377
H 15.8303 7.91885 21.5092
O 16.0712 15.7188 19.2807
H 15.2847 15.5351 18.767
H 16.7659 15.2308 18.8386
O 21.6682 9.16511 1.43827
H 21.4628 8.84261 2.31579
H 20.8212 9.41891 1.07155
O 23.1529 4.59286 30.8759
H 22.3721 4.24965 31.3104
H 23.8843 4.1813 31.3363
O 29.3988 28.4497 1.13187
H 28.5795 27.9652 1.23249
H 29.1623 29.2147 32.2926
O 0.813067 1.65925 25.2896
H 31.9199 1.05172 24.8287
H 1.69593 1.38411 25.0424
O 22.6098 2.40785 14.8968
H 21.775 1.93992 14.8746
H 22.8863 2.36201 15.812
O 14.3306 8.58572 11.0553
H 14.0829 7.73494 11.4174
H 14.302 9.18235 11.8033
O 27.1626 3.17825 28.3224
H 28.0731 3.21248 28.6157
H 26.8379 2.33757 28.645
O 7.76711 2.43513 17.9943
H 7.31956 2.39893 17.149
H 8.04406 1.53361 18.1581
O 5.7515 24.5744 24.0049
H 6.0639 23.8399 23.4765
H 5.12682 25.0283 23.4392
O 17.3906 27.6158 11.5353
H 17.2771 26.7048 11.8062
H 17.4048 27.5817 10.5788
O 6.62429 8.44029 4.43568
H 7.14316 7.69801 4.74555
H 7.03106 8.68741 3.60519
O 28.0374 25.6593 9.60404
H 27.5095 26.0028 8.88329
H 28.0008 26.3413 10.2747
O 28.5527 15.8239 27.6328
H 28.7175 15.2452 26.8883
H 29.3086 15.6981 28.2064
O 6.33739 13.2766 4.27935
H 6.95643 13.9924 4.1354
H 5.71149 13.6247 4.91441
O 29.542 1.30313 1.92558
H 29.2699 32.1637 2.32806
H 28.7228 1.72666 1.66896
O 13.6861 11.3294 26.87
H 13.2218 11.7897 26.1708
H 12.9963 11.0465 27.4703
O 9.53277 1.76228 31.1711
H 8.91535 1.54236 31.8687
H 10.3924 1.55346 31.5368
O 7.02615 27.5021 29.0031
H 7.48765 27.9875 28.3192
H 6.46134 28.153 29.4198
O 10.1259 25.9636 29.7912
H 9.17315 25.9866 29.8801
H 10.2859 26.165 28.8692
O 26.3361 20.0557 16.3189
H 26.4047 19.1243 16.529
H 27.1934 20.4165 16.5448
O 10.6549 30.0294 11.179
H 11.2612 30.7638 11.276
H 10.7605 29.5232 11.9845
O 12.226 9.80861 22.6809
H 12.3535 8.87913 22.4911
H 13.0998 10.1303 22.9028
O 12.4643 25.5728 32.3724
H 11.586 25.2117 32.2515
H 12.5768 25.6173 1.63658
O 26.1395 21.6354 23.8526
H 25.3418 21.5231 23.3356
H 26.7081 20.9169 23.5757
O 25.2527 30.355 11.8525
H 24.6016 30.91 12.2816
H 25.887 30.1533 12.5405
O 18.2677 18.3054 13.7292
H 17.7282 18.6331 13.0096
H 19.0337 18.8794 13.7356
O 25.1502 19.0558 27.8543
H 25.6564 18.7041 28.5866
H 25.4686 19.9526 27.7512
O 21.6147 22.7839 1.32978
H 22.2757 22.1285 1.10685
H 21.962 23.604 0.979125
O 15.0343 22.0353 12.3954
H 14.2369 21.6798 12.0031
H 15.2837 22.7579 11.8193
O 22.9325 9.40621 7.0317
H 22.5954 10.1281 7.5622
H 23.8833 9.46177 7.12732
O 32.0864 7.16366 14.4391
H 31.8943 7.39953 13.5315
H 31.7975 6.25444 14.5171
O 14.9971 31.6043 28.7302
H 14.9278 31.2794 29.6279
H 14.1274 31.4634 28.3562
O 7.69678 7.08434 13.5799
H 8.48756 6.63323 13.2842
H 7.70112 7.91401 13.1025
O 8.97477 30.3589 31.3397
H 9.17779 31.1708 31.8043
H 9.59878 29.7214 31.6868
O 30.5047 9.20693 4.33428
H 29.932 9.53281 5.0286
H 29.9297 9.10879 3.57529
O 29.1544 11.8636 24.1787
H 29.3156 11.0874 24.7151
H 28.2073 11.9941 24.224
O 21.367 0.929411 25.878
H 21.8853 1.18179 26.6422
H 20.4793 1.2233 26.0825
O 31.8768 10.5635 22.9941
H 32.0204 10.9517 22.1311
H 31.9244 11.3025 23.6007
O 12.2288 14.4401 15.8757
H 12.6639 14.8993 15.1574
H 12.7556 14.6477 16.6474
O 2.28953 9.12944 25.0876
H 2.84347 9.90061 24.9664
H 1.77775 9.07239 24.2807
O 21.0192 15.6665 2.40684
H 20.5457 14.9667 2.85682
H 21.9315 15.5474 2.6711
O 24.7067 24.69 9.46258
H 25.0764 25.5632 9.3321
H 23.8364 24.8499 9.82757
O 17.1844 7.08802 28.444
H 17.3234 6.5201 27.6861
H 18.0211 7.07709 28.9088
O 27.1707 21.778 12.9854
H 26.3706 21.2717 13.1256
H 27.0032 22.2748 12.1845
O 17.3945 31.0969 27.2611
H 17.7795 31.9263 26.9781
H 16.6343 31.3513 27.7842
O 8.27086 4.19019 20.1258
H 7.59658 4.19812 20.8051
H 7.95432 3.55768 19.4808
O 30.156 1.3891 13.6272
H 30.3674 1.63233 14.5285
H 29.211 1.23695 13.635
O 31.9298 9.70739 26.938
H 32.1512 9.06603 27.6132
H 0.96114 9.64779 26.3063
O 17.2375 11.0804 8.34
H 17.5843 11.1902 9.22542
H 16.3591 10.7227 8.46891
O 12.5432 28.4677 17.193
H 12.4139 28.9647 18.0007
H 11.7914 28.6976 16.6468
O 8.35812 18.1827 3.19772
H 8.37178 18.0365 4.14358
H 7.92006 19.0272 3.09174
O 7.12818 16.0402 19.7539
H 7.86068 16.6559 19.7305
H 7.14116 15.6189 18.8945
O 11.6378 27.2829 26.9863
H 11.3581 27.646 26.146
H 11.4309 27.9663 27.6238
O 1.05249 2.05572 17.7506
H 1.52396 2.84425 17.482
H 1.29064 1.93516 18.6699
O 2.65209 12.9907 14.6286
H 1.96265 12.3361 14.7396
H 3.45331 12.5442 14.9023
O 13.6148 2.31497 26.8158
H 14.2311 2.43011 27.5391
H 13.2721 1.42872 26.9312
O 12.6066 20.3903 1.23389
H 12.6036 19.6474 32.3157
H 13.3904 20.8871 0.999171
O 16.6236 27.5906 23.6369
H 16.3862 28.4733 23.9208
H 16.656 27.6462 22.6818
O 13.0282 10.9877 15.4647
H 12.1601 11.3179 15.6962
H 13.201 10.2973 16.1048
O 6.88001 7.23517 26.9206
H 6.0111 7.37819 26.5454
H 7.40261 7.97169 26.6033
O 15.1211 30.8913 31.2766
H 15.7625 31.37 31.8017
H 15.419 29.982 31.3044
O 23.8505 3.07799 17.5685
H 23.6614 3.3829 18.4559
H 24.3705 2.28406 17.6932
O 7.65544 17.5379 26.8518
H 7.67132 16.5816 26.8902
H 6.73979 17.7559 26.6777
O 14.9672 2.58994 2.04947
H 14.9336 2.87155 1.13525
H 14.8283 3.3921 2.55294
O 10.2555 5.74438 10.6888
H 9.4263 5.89952 10.2365
H 10.4769 6.58922 11.0806
O 9.2987 27.3209 19.2248
H 8.7305 27.1564 19.9773
H 8.96159 26.7444 18.539
O 17.9789 2.78001 7.70433
H 18.1055 2.60373 6.77207
H 17.0747 3.08746 7.76974
O 24.2781 29.2328 4.3083
H 24.2125 29.6539 3.45122
H 25.1609 29.4438 4.61242
O 15.0495 10.2826 13.2797
H 15.4024 9.47415 13.6513
H 14.4397 10.6055 13.9431
O 6.61266 28.4014 20.8293
H 5.8679 28.3499 20.2303
H 6.24197 28.7393 21.6446
O 7.23954 1.74378 12.3673
H 6.53171 1.16195 12.0904
H 7.00495 2.59733 12.0031
O 25.4058 25.6058 25.8067
H 24.7061 24.9762 25.6322
H 26.1929 25.195 25.449
O 23.8803 28.3958 14.6797
H 23.9879 28.0741 13.7846
H 24.5341 27.9153 15.1875
O 29.6116 14.2702 25.585
H 30.526 14.2095 25.8611
H 29.4404 13.4414 25.1378
O 29.5321 26.336 22.9544
H 30.4567 26.4318 22.7261
H 29.2966 25.463 22.6404
O 2.01229 4.67997 13.2323
H 2.73398 4.92885 12.6549
H 2.26242 5.02257 14.0904
O 5.70501 30.7244 13.1108
H 5.9361 29.9212 13.5773
H 5.19828 31.2325 13.7442
O 31.9829 27.6814 8.06431
H 32.2117 28.1927 7.28808
H 0.907217 27.9823 8.73812
O 4.78784 5.18954 8.19713
H 3.85458 5.18964 8.40991
H 4.84459 4.7169 7.36669
O 9.05478 13.5672 30.6612
H 9.09479 14.4743 30.9641
H 8.13411 13.323 30.7559
O 18.9383 23.562 29.9404
H 19.5641 22.9182 29.6086
H 18.6423 24.0327 29.1613
O 30.4896 24.5766 29.2254
H 30.8767 24.4699 30.0943
H 29.7693 25.1931 29.3577
O 20.1204 25.0238 8.2431
H 19.1652 25.079 8.21441
H 20.3928 25.8168 8.70486
O 5.32957 28.9394 26.6885
H 5.7081 29.6326 26.1478
H 4.47938 28.7593 26.2873
O 27.3808 0.834058 13.7216
H 27.067 0.978009 12.8288
H 26.861 1.43251 14.2581
O 12.5783 31.0275 27.6052
H 12.3763 30.4322 28.327
H 11.7646 31.5094 27.4567
O 3.66665 9.56993 21.7655
H 2.95899 8.92582 21.7418
H 4.3544 9.19108 21.218
O 30.8318 8.81061 31.1058
H 30.6014 9.72539 30.9435
H 30.5553 8.34939 30.3139
O 5.44043 20.8091 17.8601
H 4.8172 20.4481 18.4905
H 5.23844 20.3604 17.039
O 9.35757 6.71865 19.4578
H 9.14849 7.59859 19.7712
H 8.63877 6.17309 19.7771
O 3.97155 6.03542 11.5639
H 3.41432 6.14946 10.794
H 4.27476 6.91876 11.7737
O 1.68598 20.0804 14.4195
H 1.12687 19.4348 13.9873
H 1.09177 20.7927 14.6557
O 25.1803 27.2854 9.05657
H 25.6579 27.2031 8.23111
H 24.4422 27.8591 8.85063
O 21.986 31.1624 6.61388
H 22.9118 31.0021 6.79676
H 21.5734 30.3023 6.69298
O 14.4684 27.9082 29.2302
H 14.8733 27.1273 28.8528
H 14.9203 28.0334 30.0647
O 27.0231 26.7132 32.145
H 27.2829 26.4178 31.2724
H 26.265 27.2771 31.9916
O 1.13713 4.39707 29.2102
H 1.6706 5.11479 29.5515
H 1.29942 4.40505 28.2669
O 15.1068 14.6589 21.7012
H 15.4085 15.0765 20.8944
H 14.6958 15.3662 22.1983
O 23.736 15.1078 2.63498
H 23.8111 14.9108 1.70129
H 23.9752 14.2908 3.07262
O 19.7861 20.1416 0.894675
H 20.2364 20.9664 1.07626
H 18.9304 20.2382 1.31274
O 8.03792 26.1752 21.6587
H 7.39352 26.8596 21.4783
H 8.38338 26.3931 22.5244
O 1.52105 15.6591 19.8655
H 2.29968 15.167 19.6051
H 1.86033 16.4989 20.1751
O 27.8734 12.4355 3.18816
H 27.7011 11.6621 2.65106
H 27.4036 12.2695 4.00548
O 31.949 28.5576 29.0723
H 31.7253 28.1063 29.8862
H 31.1076 28.8463 28.7189
O 26.5814 29.9995 5.67804
H 26.6295 29.1672 6.14834
H 25.8214 30.4438 6.05374
O 6.92344 19.3929 30.9932
H 7.66617 18.8234 30.7925
H 7.22836 20.2725 30.7704
O 21.9988 23.478 17.9155
H 21.1203 23.3943 18.2863
H 22.5718 23.0621 18.5596
O 10.6063 12.1624 15.8578
H 11.1786 12.8479 16.2025
H 10.0114 11.9607 16.5801
O 1.85023 4.95096 5.83136
H 1.2397 5.6813 5.73087
H 1.55295 4.49638 6.61954
O 26.1303 3.39874 20.9996
H 26.8351 2.7537 21.0582
H 26.4481 4.04472 20.3687
O 18.1946 9.63912 6.32899
H 17.7826 10.0741 7.07552
H 18.7096 8.93197 6.71751
O 29.6647 5.78426 22.6878
H 30.1866 6.52616 22.9933
H 30.1523 5.43959 21.9397
O 5.89495 8.33613 20.3828
H 6.73933 8.78226 20.3177
H 5.90425 7.93017 21.2496
O 23.16 30.7457 15.6478
H 23.6226 30.028 15.2152
H 23.8315 31.1827 16.1717
O 2.27801 28.5544 9.94158
H 2.64594 29.0515 9.21093
H 2.00134 29.2212 10.5702
O 29.5148 31.9936 28.4269
H 29.061 31.7571 27.6179
H 30.4362 32.0571 28.1755
O 5.56342 19.4396 1.67113
H 5.6185 18.5978 2.12353
H 5.85673 19.2524 0.779407
O 3.9214 4.21781 3.47141
H 3.16296 4.79234 3.36693
H 3.79915 3.53639 2.81037
O 6.04501 4.44905 21.7935
H 5.21614 4.46493 21.315
H 6.11377 5.32053 22.1834
O 26.4317 30.5045 21.8509
H 25.7781 31.1944 21.7369
H 26.5689 30.4577 22.797
O 8.73033 8.66677 31.2166
H 8.81186 7.84674 30.7296
H 9.38634 8.60007 31.9104
O 1.4613 26.0768 4.53707
H 1.36089 25.5645 5.33933
H 32.2505 26.2751 4.26521
O 28.3673 16.29 18.8757
H 27.9956 15.7595 19.5804
H 28.587 15.6589 18.1904
O 7.0042 23.5773 26.7022
H 7.7256 23.7059 27.318
H 6.22036 23.8142 27.1979
O 2.50235 6.32165 9.39528
H 1.55891 6.34379 9.55545
H 2.69567 7.16381 8.98341
O 22.284 16.5881 14.7936
H 22.8965 16.7884 15.5014
H 22.3611 17.3292 14.1927
O 24.7213 7.95816 15.1557
H 24.6704 8.85832 15.4772
H 23.8471 7.77684 14.8106
O 15.7141 32.1868 17.7724
H 16.6501 32.0356 17.641
H 15.6688 1.33807 18.2353
O 25.2883 12.2981 9.27092
H 25.2371 11.3484 9.16272
H 25.8698 12.5887 8.56828
O 7.64147 6.21602 10.1551
H 7.50867 7.12341 10.4294
H 6.86251 5.75483 10.4661
O 12.7701 6.68461 8.87854
H 12.7026 7.63908 8.8527
H 11.9928 6.37637 8.41272
O 27.177 24.2753 23.6757
H 27.1044 24.6973 22.8196
H 26.8125 23.4002 23.5435
O 11.3624 13.7181 23.4137
H 11.197 14.6593 23.468
H 11.6557 13.5774 22.5135
O 2.39341 4.23342 16.5684
H 3.25156 3.82166 16.6698
H 2.41333 4.98012 17.167
O 6.94704 16.9129 10.6268
H 6.03832 16.6399 10.5006
H 7.32055 16.9183 9.74547
O 16.4803 8.08064 32.2931
H 17.2767 8.10684 1.13825
H 16.6229 8.7395 31.6135
O 7.27152 20.2417 28.0021
H 7.76593 19.5735 28.4767
H 7.24869 20.9912 28.597
O 20.3525 22.2866 26.4205
H 20.6001 21.676 25.7262
H 19.4054 22.1791 26.5081
O 23.7384 10.3368 11.6213
H 23.6135 10.6155 10.7141
H 24.6878 10.2705 11.7234
O 9.82574 29.7879 19.8859
H 9.32742 30.3172 19.2632
H 9.59983 28.8838 19.6672
O 27.6941 24.3873 15.4063
H 28.1258 24.9162 14.7354
H 26.7593 24.4897 15.2279
O 2.67395 29.2233 20.1979
H 1.73191 29.1186 20.0644
H 2.75036 29.6284 21.0617
O 29.6411 8.10654 8.95129
H 30.2621 7.41213 8.73118
H 28.8056 7.6538 9.0663
O 22.216 28.8615 23.0649
H 22.2049 29.0129 22.1198
H 23.1152 28.5937 23.2546
O 15.8863 14.0535 10.1813
H 15.9122 14.9636 10.4769
H 15.032 13.9624 9.7593
O 11.671 10.901 28.6624
H 11.8276 11.2447 29.5419
H 10.8848 11.3575 28.3628
O 5.50208 23.3355 18.9781
H 6.0884 23.3059 19.7341
H 5.59594 22.4758 18.5679
O 17.4098 1.32854 24.6479
H 17.4997 2.25816 24.8576
H 16.6983 1.29444 24.0085
O 21.3225 28.5231 7.24763
H 21.361 28.1085 8.10952
H 21.8738 27.9724 6.69165
O 11.85 17.8917 10.2061
H 12.6171 18.4585 10.286
H 11.7396 17.7685 9.26334
O 1.23903 10.2106 32.2925
H 2.01573 10.5577 31.8537
H 0.914082 9.53031 31.7027
O 19.0622 25.1702 16.5635
H 18.8885 25.2218 15.6236
H 18.6722 24.3391 16.8344
O 11.8862 12.2986 31.0831
H 12.0193 11.7709 31.8705
H 11.0012 12.6511 31.1773
O 16.8969 10.1856 3.71445
H 16.5034 11.02 3.96954
H 17.3873 9.90532 4.4872
O 22.7323 7.83383 29.3018
H 23.2224 7.01894 29.1919
H 21.9318 7.57294 29.7572
O 21.9216 7.46225 8.75078
H 22.4692 7.86769 8.07846
H 21.0834 7.91981 8.68568
O 15.5991 21.9794 16.7906
H 15.8802 22.4569 17.5711
H 15.8262 22.5565 16.0615
O 29.1882 20.6983 27.6324
H 29.8259 20.4884 26.9501
H 28.4839 20.0625 27.5064
O 19.3798 22.7676 18.8225
H 18.6777 22.3569 19.3272
H 19.1449 22.6058 17.9088
O 26.5622 24.423 28.7985
H 25.7629 24.255 29.2977
H 26.9378 23.5555 28.6478
O 12.7385 13.4442 21.0394
H 13.5746 13.8898 21.1761
H 12.979 12.5778 20.7112
O 24.1407 18.1305 1.50732
H 23.6619 18.9582 1.54935
H 23.8193 17.7075 0.711047
O 20.2117 5.09792 10.3731
H 20.3591 5.94544 9.95338
H 21.0431 4.89441 10.8015
O 6.35337 30.9017 20.4339
H 6.72972 31.1773 21.2697
H 6.54356 29.965 20.3824
O 9.55975 1.85322 5.5243
H 10.2338 2.53216 5.55499
H 9.52659 1.50747 6.41626
O 27.874 14.3098 0.984861
H 27.9233 13.7106 1.72972
H 28.7851 14.536 0.798075
O 23.6541 15.3717 31.7313
H 24.5513 15.1196 31.5128
H 23.1971 15.3852 30.8904
O 13.9256 19.5923 8.42454
H 14.699 19.1362 8.09287
H 13.3091 19.5829 7.69241
O 29.4791 21.872 23.1836
H 30.2405 22.428 23.018
H 29.0518 21.7901 22.331
O 21.0941 20.154 19.294
H 21.8428 20.4632 18.784
H 20.8587 20.8972 19.8494
O 18.7479 6.78913 19.7073
H 18.3035 7.48451 20.1922
H 18.9303 6.11725 20.3642
O 3.62318 16.2328 17.2274
H 4.0589 15.8569 16.4624
H 3.8003 15.6116 17.9338
O 28.9602 29.7651 9.21206
H 29.4987 30.4325 9.63734
H 29.3462 29.6639 8.34198
O 6.83049 31.8189 23.2895
H 7.57783 32.3542 23.0229
H 7.21925 31.0812 23.7595
O 22.3939 13.9903 13.7764
H 21.582 13.6015 14.1019
H 22.4361 14.8476 14.1999
O 12.5134 11.1792 18.6397
H 12.4659 10.4253 18.0518
H 13.349 11.0763 19.0949
O 25.3465 5.1156 29.0697
H 25.4944 5.83813 28.4595
H 26.0217 4.47376 28.8498
O 10.7648 28.0903 31.5843
H 11.5206 27.6075 31.919
H 10.322 27.4708 31.0042
O 18.8136 14.0765 22.948
H 18.1029 14.5921 23.329
H 19.1978 14.6503 22.2851
O 28.9934 6.87127 13.4632
H 29.7459 7.46088 13.5116
H 29.1528 6.34238 12.6815
O 22.6653 17.9123 19.9747
H 22.0558 18.6284 19.7962
H 23.4384 18.341 20.3419
O 22.2656 4.91351 22.2004
H 22.7337 4.76127 21.3795
H 21.3516 5.02377 21.9386
O 12.2162 23.0257 5.28048
H 12.2264 23.7875 4.7011
H 12.8449 22.4187 4.88994
O 7.67436 11.4581 5.85426
H 7.58444 12.0647 6.58919
H 7.3961 11.9635 5.09047
O 19.9849 11.5729 10.1062
H 19.654 11.4556 10.9966
H 19.7474 12.4718 9.87832
O 31.2398 15.0346 17.7674
H 31.7968 15.0053 18.5453
H 31.853 15.1026 17.0356
O 29.3235 2.40396 30.2709
H 28.5169 2.27926 30.7709
H 29.4533 1.57312 29.8136
O 10.7408 30.8116 24.4192
H 10.9196 30.9751 23.4931
H 9.79516 30.669 24.4594
O 5.06446 22.9203 15.4388
H 5.6305 22.4589 16.0577
H 4.4294 23.3779 15.9897
O 15.8275 28.4523 31.6437
H 16.6275 28.1584 31.2079
H 16.0127 28.3533 0.89226
O 8.28247 30.5755 15.8271
H 8.83597 29.8002 15.9206
H 8.68446 31.0729 15.1148
O 5.45827 24.4292 31.8067
H 5.83808 25.2764 32.0398
H 4.93139 24.185 0.882295
O 14.8539 3.39322 24.5635
H 14.6815 4.32288 24.7125
H 14.6069 2.96857 25.385
O 18.1048 12.504 20.2186
H 18.0474 12.9483 21.0645
H 18.2471 13.2087 19.5866
O 24.9784 5.38722 16.9102
H 24.4852 4.60229 17.1487
H 24.3125 6.06714 16.8077
O 25.2072 25.5957 12.5825
H 25.5064 25.2937 11.7249
H 24.6195 26.3259 12.3881
O 5.3648 22.7265 5.19279
H 6.09653 22.124 5.05952
H 4.90072 22.376 5.95307
O 16.7196 19.598 11.6187
H 16.4099 18.8018 11.1871
H 15.9241 20.02 11.9434
O 5.12826 27.5217 3.41019
H 5.77961 28.1706 3.67655
H 5.29187 26.7698 3.97945
O 19.6929 1.97636 13.2614
H 20.3604 1.7239 12.6235
H 19.8558 1.41027 14.0159
O 21.4301 28.7272 17.8312
H 20.5204 29.0247 17.8201
H 21.893 29.3494 17.27
O 28.0695 1.24791 21.1554
H 27.708 32.2921 21.7673
H 28.631 1.80455 21.695
O 19.2575 6.55793 0.767372
H 19.68 5.71723 32.2768
H 18.9029 6.46793 1.65192
O 17.6745 11.2915 26.1177
H 16.7772 11.5882 26.2693
H 17.7642 11.2751 25.1649
O 25.8408 9.42653 3.49824
H 26.3186 9.67541 2.70708
H 26.4499 9.60846 4.21379
O 5.123 16.6106 5.31038
H 4.32993 17.106 5.5148
H 5.15581 16.5941 4.35388
O 22.8615 13.4714 7.3622
H 23.131 13.538 6.44613
H 23.4304 14.0865 7.82505
O 5.31561 11.542 2.28646
H 5.68816 12.0136 3.03147
H 4.70474 12.1634 1.89026
O 18.7812 26.7535 1.81818
H 17.8685 26.8692 2.0827
H 18.8108 25.8765 1.43568
O 14.1458 24.0753 23.4112
H 14.8815 24.1598 22.8048
H 14.3081 24.7409 24.0798
O 1.4087 14.9012 6.5675
H 32.2731 15.3924 6.53361
H 1.14089 13.9831 6.5278
O 5.45174 28.4357 23.2859
H 4.68776 29.01 23.3378
H 6.08341 28.8211 23.8931
O 4.79649 21.116 27.3991
H 5.70259 20.8336 27.5235
H 4.34317 20.335 27.0817
O 13.7391 11.3447 4.58447
H 14.5446 11.8614 4.60059
H 13.3218 11.5765 3.75476
O 15.3185 7.90455 14.7644
H 14.4716 7.5011 14.9547
H 15.7007 8.07734 15.6248
O 17.1489 21.4145 30.2155
H 17.6135 22.2316 30.3963
H 16.3694 21.454 30.7697
O 5.98904 19.3687 23.0743
H 5.47294 18.8908 23.7235
H 5.86716 18.8775 22.2619
O 27.1932 24.6191 2.54652
H 27.2961 25.2011 1.79359
H 26.2815 24.733 2.81502
O 6.0171 4.49326 11.5254
H 6.56555 4.8587 12.2196
H 5.16594 4.91444 11.6453
O 13.4749 29.9034 1.63634
H 14.1151 30.2565 1.01857
H 14.0018 29.5584 2.35713
O 9.55939 18.4342 29.3101
H 9.10622 17.6414 29.5971
H 10.3073 18.511 29.9025
O 4.26383 22.7036 10.9791
H 3.43839 22.4076 11.3629
H 4.89119 22.6663 11.7011
O 9.92118 21.6291 1.19343
H 10.8164 21.3049 1.09512
H 9.89952 22.4345 32.3621
O 28.3515 22.2334 20.1135
H 27.6931 22.602 19.5245
H 28.8614 22.9888 20.4062
O 15.9873 18.3381 7.06015
H 16.1283 17.8867 6.22793
H 16.7955 18.8298 7.20636
O 17.1787 14.0709 29.4599
H 17.8694 13.4147 29.5524
H 17.1761 14.5361 30.2965
O 14.7677 9.78552 8.3078
H 14.5286 9.51789 9.19517
H 14.8872 8.96298 7.83306
O 24.7731 30.2815 26.3389
H 24.7012 29.4842 26.8636
H 24.9917 30.966 26.9712
O 9.42927 14.1259 26.031
H 8.63641 14.5814 25.7479
H 10.0107 14.8227 26.3351
O 2.57415 20.2054 4.18276
H 1.97791 20.8797 4.5085
H 2.95667 19.8218 4.97188
O 23.2225 15.9034 18.2116
H 24.0467 15.7861 17.7392
H 23.3394 16.7187 18.6993
O 13.8139 16.8759 22.668
H 14.0523 17.8027 22.6892
H 13.06 16.8087 23.254
O 1.94139 9.18006 5.9447
H 1.31434 9.52406 5.30853
H 2.74298 9.67826 5.7851
O 26.552 4.87139 13.2321
H 27.4465 4.75708 12.911
H 26.0674 4.13475 12.8596
O 27.7699 22.2194 1.16243
H 28.1512 22.4585 32.003
H 27.4686 23.0488 1.53317
O 9.48261 2.96901 24.2964
H 8.9715 3.67405 24.6938
H 9.73603 2.41204 25.0325
O 32.1465 22.3339 28.2404
H 31.5355 23.0527 28.4023
H 1.13794 22.439 28.9091
O 23.4566 20.6842 18.1497
H 24.1862 20.7583 18.7649
H 23.7247 21.2088 17.3953
O 16.9519 32.2269 1.15786
H 17.5932 32.0111 1.83491
H 16.5016 1.31717 1.49228
O 9.37475 12.3904 28.2404
H 9.38724 13.0456 28.9381
H 9.33558 12.9014 27.432
O 31.3065 5.61683 9.79403
H 31.1845 4.91866 9.15065
H 30.7351 5.37418 10.5227
O 8.3459 18.4511 16.7322
H 8.65494 18.8744 17.5331
H 8.85436 17.642 16.6768
O 21.7803 9.39639 4.52053
H 22.2884 9.54788 5.31746
H 21.6489 8.44856 4.49622
O 8.28313 22.2461 6.97653
H 8.8963 22.9698 7.10532
H 7.5238 22.4768 7.5117
O 19.805 3.80268 26.5512
H 19.2633 3.24442 27.109
H 20.5198 4.08879 27.1199
O 11.7373 9.22405 8.90485
H 10.9669 9.10937 9.46129
H 11.462 9.85671 8.24136
O 19.9554 9.29252 17.6491
H 19.0843 9.30777 18.0457
H 20.0659 8.3909 17.3472
O 23.32 30.2175 2.10919
H 22.7125 30.6583 2.70323
H 23.382 30.801 1.35294
O 16.8547 16.6551 4.90947
H 16.2045 16.8939 4.24889
H 17.697 16.7684 4.46912
O 30.689 13.6292 11.9028
H 30.2461 13.6167 11.0544
H 31.362 14.3038 11.8123
O 9.89514 2.27782 8.26443
H 9.45487 1.60312 8.78131
H 10.742 2.39536 8.6948
O 26.9181 5.12557 18.9427
H 27.4782 4.52888 18.4463
H 26.2073 5.3446 18.3402
O 6.72998 11.2622 13.8721
H 6.95989 10.5909 13.2296
H 6.7077 10.7966 14.7081
O 22.4999 24.4536 10.9672
H 21.9886 23.6912 10.696
H 21.9621 25.2047 10.7167
O 19.4379 12.1726 28.2475
H 18.6527 11.9246 27.7594
H 19.4667 13.1274 28.1867
O 16.8401 7.4159 10.5022
H 16.4212 6.63578 10.1386
H 16.1152 8.01229 10.6895
O 16.8348 12.5246 14.6408
H 17.0573 12.0398 13.8459
H 16.5382 13.3785 14.326
O 15.6791 2.9999 19.4604
H 16.4158 3.51907 19.1382
H 15.8906 2.8266 20.3777
O 21.9674 11.271 17.8172
H 21.6731 12.1767 17.9141
H 21.1721 10.7481 17.9184
O 11.2655 8.23708 28.1815
H 12.0164 7.84964 28.6312
H 11.228 9.13614 28.5079
O 25.3357 20.0081 13.7092
H 25.8688 19.3278 13.2978
H 25.5837 19.9813 14.6333
O 13.9869 30.3355 22.2225
H 14.4209 30.3224 23.0756
H 13.8184 31.2624 22.0533
O 11.0106 6.48352 3.66125
H 11.8645 6.83173 3.9178
H 10.999 5.59327 4.01275
O 26.0586 14.3792 22.4248
H 25.9672 14.375 21.472
H 25.6209 15.1833 22.7043
O 25.7948 3.26465 7.4052
H 26.578 3.28295 6.85523
H 25.6876 4.16888 7.70036
O 5.09821 2.02189 10.1827
H 5.32598 2.93788 10.3418
H 4.61941 2.03416 9.35394