created by fftool

3072 atoms
2000 bonds
1000 angles
4 atom types
1 bond types
1 angle types
0.000000 31.868658 xlo xhi
0.000000 31.868658 ylo yhi
0.000000 31.868658 zlo zhi
Atoms

      1       1    1  -1.112800  2.207025e+01  2.351442e+01  2.920387e+01  # Ow water
      2       1    2   0.556400  2.220816e+01  2.437163e+01  2.880087e+01  # Hw water
      3       1    2   0.556400  2.148136e+01  2.305849e+01  2.860258e+01  # Hw water
      4       2    1  -1.112800  6.076383e+00  1.179302e+01  5.574958e+00  # Ow water
      5       2    2   0.556400  6.806495e+00  1.185300e+01  6.191049e+00  # Hw water
      6       2    2   0.556400  5.296166e+00  1.176964e+01  6.128983e+00  # Hw water
      7       3    1  -1.112800  1.737581e+00  2.162628e+00  2.967920e+01  # Ow water
      8       3    2   0.556400  1.706197e+00  1.499865e+00  3.036912e+01  # Hw water
      9       3    2   0.556400  1.498925e+00  1.690265e+00  2.888161e+01  # Hw water
     10       4    1  -1.112800  1.490695e+00  2.254613e+01  5.586994e+00  # Ow water
     11       4    2   0.556400  1.735424e+00  2.190241e+01  6.251792e+00  # Hw water
     12       4    2   0.556400  1.804093e+00  2.338111e+01  5.934589e+00  # Hw water
     13       5    1  -1.112800  1.344740e+01  3.034491e+01  1.167589e+01  # Ow water
     14       5    2   0.556400  1.324614e+01  2.942384e+01  1.151053e+01  # Hw water
     15       5    2   0.556400  1.439948e+01  3.036907e+01  1.177174e+01  # Hw water
     16       6    1  -1.112800  3.078963e+00  1.052550e+01  6.211025e+00  # Ow water
     17       6    2   0.556400  3.118629e+00  1.085278e+01  5.312390e+00  # Hw water
     18       6    2   0.556400  3.352973e+00  9.610700e+00  6.145583e+00  # Hw water
     19       7    1  -1.112800  2.366075e+01  5.709219e+00  1.612923e+01  # Ow water
     20       7    2   0.556400  2.416344e+01  6.523017e+00  1.616486e+01  # Hw water
     21       7    2   0.556400  2.399407e+01  5.254920e+00  1.535545e+01  # Hw water
     22       8    1  -1.112800  1.505833e+00  9.044023e+00  2.729533e+01  # Ow water
     23       8    2   0.556400  1.499351e+00  8.292633e+00  2.788829e+01  # Hw water
     24       8    2   0.556400  1.499708e+00  9.806465e+00  2.787401e+01  # Hw water
     25       9    1  -1.112800  2.978991e+01  1.514958e+01  2.500453e+01  # Ow water
     26       9    2   0.556400  3.036899e+01  1.580302e+01  2.539682e+01  # Hw water
     27       9    2   0.556400  3.036356e+01  1.462494e+01  2.444604e+01  # Hw water
     28      10    1  -1.112800  1.151888e+01  2.071770e+01  2.006112e+01  # Ow water
     29      10    2   0.556400  1.105758e+01  1.994300e+01  2.038249e+01  # Hw water
     30      10    2   0.556400  1.151770e+01  2.132265e+01  2.080291e+01  # Hw water
     31      11    1  -1.112800  4.470623e+00  1.918230e+01  1.401015e+01  # Ow water
     32      11    2   0.556400  4.964737e+00  1.944243e+01  1.478759e+01  # Hw water
     33      11    2   0.556400  4.571481e+00  1.823133e+01  1.396876e+01  # Hw water
     34      12    1  -1.112800  1.462708e+01  8.978506e+00  8.800999e+00  # Ow water
     35      12    2   0.556400  1.543386e+01  9.104981e+00  9.300324e+00  # Hw water
     36      12    2   0.556400  1.397269e+01  9.499585e+00  9.266281e+00  # Hw water
     37      13    1  -1.112800  2.097589e+01  1.571247e+01  7.341163e+00  # Ow water
     38      13    2   0.556400  2.130073e+01  1.484011e+01  7.564092e+00  # Hw water
     39      13    2   0.556400  2.036417e+01  1.556376e+01  6.620121e+00  # Hw water
     40      14    1  -1.112800  1.524060e+00  2.405141e+01  2.265029e+01  # Ow water
     41      14    2   0.556400  1.558603e+00  2.313225e+01  2.238540e+01  # Hw water
     42      14    2   0.556400  1.517617e+00  2.453854e+01  2.182634e+01  # Hw water
     43      15    1  -1.112800  1.457645e+01  1.201530e+01  9.808649e+00  # Ow water
     44      15    2   0.556400  1.532218e+01  1.160131e+01  9.374202e+00  # Hw water
     45      15    2   0.556400  1.408235e+01  1.242521e+01  9.098678e+00  # Hw water
     46      16    1  -1.112800  1.738914e+01  2.247724e+01  1.365474e+01  # Ow water
     47      16    2   0.556400  1.738448e+01  2.306147e+01  1.289652e+01  # Hw water
     48      16    2   0.556400  1.646432e+01  2.235502e+01  1.386921e+01  # Hw water
     49      17    1  -1.112800  4.792220e+00  1.407414e+01  2.233880e+01  # Ow water
     50      17    2   0.556400  5.452941e+00  1.385959e+01  2.299732e+01  # Hw water
     51      17    2   0.556400  3.957602e+00  1.387126e+01  2.276127e+01  # Hw water
     52      18    1  -1.112800  2.863976e+01  1.053504e+01  5.294941e+00  # Ow water
     53      18    2   0.556400  2.859104e+01  9.790229e+00  4.695684e+00  # Hw water
     54      18    2   0.556400  2.827595e+01  1.126747e+01  4.797530e+00  # Hw water
     55      19    1  -1.112800  2.733605e+01  1.556102e+01  1.631651e+01  # Ow water
     56      19    2   0.556400  2.694042e+01  1.604988e+01  1.703812e+01  # Hw water
     57      19    2   0.556400  2.778699e+01  1.483068e+01  1.674018e+01  # Hw water
     58      20    1  -1.112800  9.478698e+00  1.783207e+00  5.487729e+00  # Ow water
     59      20    2   0.556400  8.572492e+00  1.653139e+00  5.767194e+00  # Hw water
     60      20    2   0.556400  9.490979e+00  1.499636e+00  4.573582e+00  # Hw water
     61      21    1  -1.112800  1.149618e+01  1.478184e+01  6.282454e+00  # Ow water
     62      21    2   0.556400  1.096724e+01  1.527865e+01  5.658249e+00  # Hw water
     63      21    2   0.556400  1.105384e+01  1.490395e+01  7.122486e+00  # Hw water
     64      22    1  -1.112800  1.509927e+00  1.686097e+01  2.287913e+01  # Ow water
     65      22    2   0.556400  1.624568e+00  1.650970e+01  2.199612e+01  # Hw water
     66      22    2   0.556400  1.500107e+00  1.608906e+01  2.344508e+01  # Hw water
     67      23    1  -1.112800  1.299291e+01  2.564994e+01  2.420032e+01  # Ow water
     68      23    2   0.556400  1.341901e+01  2.516265e+01  2.490546e+01  # Hw water
     69      23    2   0.556400  1.369483e+01  2.583032e+01  2.357503e+01  # Hw water
     70      24    1  -1.112800  5.130022e+00  2.585702e+01  2.084705e+00  # Ow water
     71      24    2   0.556400  5.884892e+00  2.591973e+01  1.499497e+00  # Hw water
     72      24    2   0.556400  4.376210e+00  2.579414e+01  1.498153e+00  # Hw water
     73      25    1  -1.112800  1.583473e+01  5.167550e+00  1.469579e+01  # Ow water
     74      25    2   0.556400  1.490369e+01  5.163481e+00  1.447357e+01  # Hw water
     75      25    2   0.556400  1.618747e+01  5.930392e+00  1.423766e+01  # Hw water
     76      26    1  -1.112800  1.203208e+01  8.929490e+00  3.036892e+01  # Ow water
     77      26    2   0.556400  1.178996e+01  8.413230e+00  2.960010e+01  # Hw water
     78      26    2   0.556400  1.294810e+01  9.164718e+00  3.022127e+01  # Hw water
     79      27    1  -1.112800  1.589760e+01  2.789917e+01  1.088553e+01  # Ow water
     80      27    2   0.556400  1.538393e+01  2.807314e+01  1.167427e+01  # Hw water
     81      27    2   0.556400  1.679997e+01  2.782989e+01  1.119725e+01  # Hw water
     82      28    1  -1.112800  8.504696e+00  1.005366e+01  4.818559e+00  # Ow water
     83      28    2   0.556400  8.036938e+00  9.758612e+00  5.599825e+00  # Hw water
     84      28    2   0.556400  7.856945e+00  1.055930e+01  4.327663e+00  # Hw water
     85      29    1  -1.112800  3.035112e+01  2.889427e+01  2.130686e+01  # Ow water
     86      29    2   0.556400  3.036903e+01  2.898340e+01  2.225974e+01  # Hw water
     87      29    2   0.556400  3.036883e+01  2.794955e+01  2.115382e+01  # Hw water
     88      30    1  -1.112800  2.013869e+01  2.481864e+01  1.959069e+01  # Ow water
     89      30    2   0.556400  1.933375e+01  2.531368e+01  1.943825e+01  # Hw water
     90      30    2   0.556400  2.013847e+01  2.414488e+01  1.891078e+01  # Hw water
     91      31    1  -1.112800  1.959589e+00  2.676790e+01  3.010142e+01  # Ow water
     92      31    2   0.556400  1.619729e+00  2.695900e+01  2.922724e+01  # Hw water
     93      31    2   0.556400  1.499740e+00  2.597219e+01  3.036903e+01  # Hw water
     94      32    1  -1.112800  5.763533e+00  2.275136e+00  2.178135e+01  # Ow water
     95      32    2   0.556400  5.594008e+00  1.498826e+00  2.124765e+01  # Hw water
     96      32    2   0.556400  5.916093e+00  2.974565e+00  2.114594e+01  # Hw water
     97      33    1  -1.112800  6.007813e+00  3.825174e+00  2.080010e+00  # Ow water
     98      33    2   0.556400  6.771499e+00  3.925772e+00  1.511774e+00  # Hw water
     99      33    2   0.556400  5.257711e+00  3.923225e+00  1.493528e+00  # Hw water
    100      34    1  -1.112800  7.573280e+00  2.069632e+01  1.050329e+01  # Ow water
    101      34    2   0.556400  7.032473e+00  2.101768e+01  9.781841e+00  # Hw water
    102      34    2   0.556400  8.253208e+00  2.017303e+01  1.007892e+01  # Hw water
    103      35    1  -1.112800  1.127985e+01  1.124546e+01  4.967932e+00  # Ow water
    104      35    2   0.556400  1.223374e+01  1.119755e+01  4.904518e+00  # Hw water
    105      35    2   0.556400  1.098765e+01  1.033814e+01  4.880596e+00  # Hw water
    106      36    1  -1.112800  1.185341e+01  3.001603e+01  2.287435e+01  # Ow water
    107      36    2   0.556400  1.130257e+01  3.029746e+01  2.214387e+01  # Hw water
    108      36    2   0.556400  1.271981e+01  3.036871e+01  2.267137e+01  # Hw water
    109      37    1  -1.112800  2.822231e+01  7.054174e+00  8.381975e+00  # Ow water
    110      37    2   0.556400  2.746176e+01  7.568069e+00  8.110489e+00  # Hw water
    111      37    2   0.556400  2.790478e+01  6.151587e+00  8.409165e+00  # Hw water
    112      38    1  -1.112800  2.854726e+01  2.647147e+01  1.845917e+00  # Ow water
    113      38    2   0.556400  2.933052e+01  2.689240e+01  1.491576e+00  # Hw water
    114      38    2   0.556400  2.784012e+01  2.709145e+01  1.667618e+00  # Hw water
    115      39    1  -1.112800  1.632431e+01  1.858420e+00  3.036894e+01  # Ow water
    116      39    2   0.556400  1.650951e+01  2.792820e+00  3.027500e+01  # Hw water
    117      39    2   0.556400  1.644645e+01  1.499984e+00  2.948983e+01  # Hw water
    118      40    1  -1.112800  1.780222e+01  3.714693e+00  3.831968e+00  # Ow water
    119      40    2   0.556400  1.688371e+01  3.638345e+00  4.090330e+00  # Hw water
    120      40    2   0.556400  1.806933e+01  4.577989e+00  4.147560e+00  # Hw water
    121      41    1  -1.112800  2.053302e+00  2.622723e+01  2.563303e+01  # Ow water
    122      41    2   0.556400  1.497626e+00  2.545218e+01  2.571513e+01  # Hw water
    123      41    2   0.556400  1.499129e+00  2.695169e+01  2.592335e+01  # Hw water
    124      42    1  -1.112800  2.636706e+01  2.119524e+01  2.039207e+00  # Ow water
    125      42    2   0.556400  2.698620e+01  2.068732e+01  1.514891e+00  # Hw water
    126      42    2   0.556400  2.613627e+01  2.193973e+01  1.483601e+00  # Hw water
    127      43    1  -1.112800  2.012789e+01  3.035905e+01  2.691071e+01  # Ow water
    128      43    2   0.556400  1.938062e+01  3.032497e+01  2.750792e+01  # Hw water
    129      43    2   0.556400  2.089401e+01  3.029613e+01  2.748108e+01  # Hw water
    130      44    1  -1.112800  3.007778e+01  2.252686e+01  5.032049e+00  # Ow water
    131      44    2   0.556400  3.022949e+01  2.316065e+01  4.330960e+00  # Hw water
    132      44    2   0.556400  3.039393e+01  2.169604e+01  4.677055e+00  # Hw water
    133      45    1  -1.112800  9.627892e+00  2.563681e+01  2.398677e+01  # Ow water
    134      45    2   0.556400  9.491419e+00  2.587006e+01  2.306852e+01  # Hw water
    135      45    2   0.556400  1.045801e+01  2.516027e+01  2.399252e+01  # Hw water
    136      46    1  -1.112800  9.760698e+00  4.835613e+00  1.828307e+01  # Ow water
    137      46    2   0.556400  1.040350e+01  4.146594e+00  1.811487e+01  # Hw water
    138      46    2   0.556400  9.007035e+00  4.375660e+00  1.865275e+01  # Hw water
    139      47    1  -1.112800  2.168501e+01  7.412147e+00  2.458875e+01  # Ow water
    140      47    2   0.556400  2.082849e+01  7.584532e+00  2.497977e+01  # Hw water
    141      47    2   0.556400  2.204292e+01  8.280172e+00  2.440259e+01  # Hw water
    142      48    1  -1.112800  1.486507e+01  1.531260e+01  1.143762e+01  # Ow water
    143      48    2   0.556400  1.532499e+01  1.601468e+01  1.097740e+01  # Hw water
    144      48    2   0.556400  1.464499e+01  1.468083e+01  1.075304e+01  # Hw water
    145      49    1  -1.112800  9.068384e+00  1.209041e+01  1.699725e+01  # Ow water
    146      49    2   0.556400  8.816133e+00  1.155386e+01  1.624577e+01  # Hw water
    147      49    2   0.556400  9.249776e+00  1.145867e+01  1.769311e+01  # Hw water
    148      50    1  -1.112800  4.251921e+00  2.508807e+00  2.375886e+01  # Ow water
    149      50    2   0.556400  3.771783e+00  3.011288e+00  2.310067e+01  # Hw water
    150      50    2   0.556400  4.037385e+00  1.595825e+00  2.356738e+01  # Hw water
    151      51    1  -1.112800  7.683463e+00  2.494365e+01  2.976737e+01  # Ow water
    152      51    2   0.556400  6.892011e+00  2.490240e+01  3.030415e+01  # Hw water
    153      51    2   0.556400  8.343511e+00  2.533086e+01  3.034239e+01  # Hw water
    154      52    1  -1.112800  2.113332e+01  1.967900e+01  4.879151e+00  # Ow water
    155      52    2   0.556400  2.164491e+01  2.032995e+01  4.398776e+00  # Hw water
    156      52    2   0.556400  2.049926e+01  1.935307e+01  4.240428e+00  # Hw water
    157      53    1  -1.112800  1.226278e+01  6.014180e+00  7.904488e+00  # Ow water
    158      53    2   0.556400  1.205192e+01  6.870765e+00  7.532969e+00  # Hw water
    159      53    2   0.556400  1.260317e+01  6.208546e+00  8.777750e+00  # Hw water
    160      54    1  -1.112800  2.804598e+01  2.170099e+01  3.820355e+00  # Ow water
    161      54    2   0.556400  2.724705e+01  2.161773e+01  4.340934e+00  # Hw water
    162      54    2   0.556400  2.830654e+01  2.079885e+01  3.634657e+00  # Hw water
    163      55    1  -1.112800  2.968400e+01  7.546145e+00  4.835374e+00  # Ow water
    164      55    2   0.556400  3.011230e+01  7.722070e+00  3.997616e+00  # Hw water
    165      55    2   0.556400  3.036865e+01  7.153887e+00  5.377234e+00  # Hw water
    166      56    1  -1.112800  1.861293e+01  2.193974e+01  2.043146e+01  # Ow water
    167      56    2   0.556400  1.908044e+01  2.272475e+01  2.071679e+01  # Hw water
    168      56    2   0.556400  1.838054e+01  2.211683e+01  1.951994e+01  # Hw water
    169      57    1  -1.112800  2.245118e+01  1.832914e+01  2.478636e+01  # Ow water
    170      57    2   0.556400  2.334745e+01  1.854216e+01  2.504627e+01  # Hw water
    171      57    2   0.556400  2.234180e+01  1.741063e+01  2.503252e+01  # Hw water
    172      58    1  -1.112800  2.345192e+01  7.545606e+00  1.064388e+01  # Ow water
    173      58    2   0.556400  2.413780e+01  8.211319e+00  1.059257e+01  # Hw water
    174      58    2   0.556400  2.283299e+01  7.785048e+00  9.954081e+00  # Hw water
    175      59    1  -1.112800  5.519620e+00  2.599484e+01  7.330794e+00  # Ow water
    176      59    2   0.556400  5.129017e+00  2.605217e+01  8.202786e+00  # Hw water
    177      59    2   0.556400  6.172177e+00  2.669492e+01  7.313633e+00  # Hw water
    178      60    1  -1.112800  5.776485e+00  7.617775e+00  1.617516e+01  # Ow water
    179      60    2   0.556400  5.396593e+00  8.447176e+00  1.646500e+01  # Hw water
    180      60    2   0.556400  5.239358e+00  7.356120e+00  1.542732e+01  # Hw water
    181      61    1  -1.112800  1.458129e+01  1.500006e+00  1.936693e+01  # Ow water
    182      61    2   0.556400  1.412722e+01  1.631519e+00  2.019925e+01  # Hw water
    183      61    2   0.556400  1.550870e+01  1.602176e+00  1.958074e+01  # Hw water
    184      62    1  -1.112800  1.154689e+01  1.758299e+01  6.881056e+00  # Ow water
    185      62    2   0.556400  1.091554e+01  1.736024e+01  7.565165e+00  # Hw water
    186      62    2   0.556400  1.239161e+01  1.730313e+01  7.233715e+00  # Hw water
    187      63    1  -1.112800  3.458359e+00  2.271642e+01  4.054455e+00  # Ow water
    188      63    2   0.556400  3.765039e+00  2.205435e+01  4.674012e+00  # Hw water
    189      63    2   0.556400  2.832325e+00  2.225285e+01  3.498199e+00  # Hw water
    190      64    1  -1.112800  1.519859e+01  2.979382e+01  3.036811e+01  # Ow water
    191      64    2   0.556400  1.441498e+01  3.029046e+01  3.013245e+01  # Hw water
    192      64    2   0.556400  1.592689e+01  3.036806e+01  3.013133e+01  # Hw water
    193      65    1  -1.112800  2.087829e+01  1.217568e+01  2.158972e+01  # Ow water
    194      65    2   0.556400  2.170474e+01  1.242338e+01  2.200427e+01  # Hw water
    195      65    2   0.556400  2.080966e+01  1.275162e+01  2.082827e+01  # Hw water
    196      66    1  -1.112800  2.442964e+01  2.162473e+01  9.328142e+00  # Ow water
    197      66    2   0.556400  2.388702e+01  2.184559e+01  8.571167e+00  # Hw water
    198      66    2   0.556400  2.529841e+01  2.196001e+01  9.106680e+00  # Hw water
    199      67    1  -1.112800  2.072662e+01  4.187427e+00  2.995337e+01  # Ow water
    200      67    2   0.556400  2.058763e+01  3.758270e+00  2.910914e+01  # Hw water
    201      67    2   0.556400  2.143644e+01  3.691142e+00  3.036089e+01  # Hw water
    202      68    1  -1.112800  8.794001e+00  3.029522e+01  1.309323e+01  # Ow water
    203      68    2   0.556400  8.105291e+00  3.036901e+01  1.375388e+01  # Hw water
    204      68    2   0.556400  9.610051e+00  3.033070e+01  1.359226e+01  # Hw water
    205      69    1  -1.112800  2.863347e+01  1.551529e+00  1.500001e+00  # Ow water
    206      69    2   0.556400  2.774123e+01  1.499980e+00  1.842753e+00  # Hw water
    207      69    2   0.556400  2.918584e+01  1.622996e+00  2.278462e+00  # Hw water
    208      70    1  -1.112800  2.139200e+01  3.035804e+01  2.181622e+01  # Ow water
    209      70    2   0.556400  2.234380e+01  3.025653e+01  2.181663e+01  # Hw water
    210      70    2   0.556400  2.115226e+01  3.036936e+01  2.088960e+01  # Hw water
    211      71    1  -1.112800  1.500975e+01  2.778218e+01  4.607912e+00  # Ow water
    212      71    2   0.556400  1.419333e+01  2.818475e+01  4.903934e+00  # Hw water
    213      71    2   0.556400  1.540637e+01  2.843775e+01  4.034203e+00  # Hw water
    214      72    1  -1.112800  1.958521e+00  3.646710e+00  1.501723e+01  # Ow water
    215      72    2   0.556400  1.506496e+00  3.819093e+00  1.584318e+01  # Hw water
    216      72    2   0.556400  1.505444e+00  4.195044e+00  1.437670e+01  # Hw water
    217      73    1  -1.112800  1.234808e+01  5.192134e+00  1.498139e+00  # Ow water
    218      73    2   0.556400  1.246302e+01  5.783733e+00  2.241798e+00  # Hw water
    219      73    2   0.556400  1.222447e+01  4.329653e+00  1.894466e+00  # Hw water
    220      74    1  -1.112800  2.044923e+01  2.770998e+01  2.934650e+01  # Ow water
    221      74    2   0.556400  2.094859e+01  2.710575e+01  2.879717e+01  # Hw water
    222      74    2   0.556400  1.991536e+01  2.821016e+01  2.872922e+01  # Hw water
    223      75    1  -1.112800  1.653906e+01  2.123640e+01  5.937603e+00  # Ow water
    224      75    2   0.556400  1.652526e+01  2.194972e+01  5.299475e+00  # Hw water
    225      75    2   0.556400  1.654704e+01  2.043980e+01  5.406947e+00  # Hw water
    226      76    1  -1.112800  1.345995e+01  2.582150e+01  4.548354e+00  # Ow water
    227      76    2   0.556400  1.304966e+01  2.518243e+01  5.131013e+00  # Hw water
    228      76    2   0.556400  1.272778e+01  2.622978e+01  4.086332e+00  # Hw water
    229      77    1  -1.112800  4.142022e+00  2.373693e+00  1.499457e+01  # Ow water
    230      77    2   0.556400  4.434054e+00  2.900299e+00  1.425050e+01  # Hw water
    231      77    2   0.556400  4.004783e+00  1.499144e+00  1.463048e+01  # Hw water
    232      78    1  -1.112800  2.537441e+01  6.187785e+00  9.801343e+00  # Ow water
    233      78    2   0.556400  2.581966e+01  5.378221e+00  9.551166e+00  # Hw water
    234      78    2   0.556400  2.529435e+01  6.679995e+00  8.984306e+00  # Hw water
    235      79    1  -1.112800  8.733132e+00  2.923964e+01  2.795635e+01  # Ow water
    236      79    2   0.556400  9.600506e+00  2.904911e+01  2.759916e+01  # Hw water
    237      79    2   0.556400  8.901940e+00  2.953891e+01  2.884976e+01  # Hw water
    238      80    1  -1.112800  1.499223e+00  1.285498e+01  2.942501e+01  # Ow water
    239      80    2   0.556400  1.581400e+00  1.233029e+01  2.862866e+01  # Hw water
    240      80    2   0.556400  1.553387e+00  1.221885e+01  3.013819e+01  # Hw water
    241      81    1  -1.112800  2.147452e+01  4.424304e+00  2.534385e+01  # Ow water
    242      81    2   0.556400  2.136193e+01  4.649047e+00  2.626745e+01  # Hw water
    243      81    2   0.556400  2.214356e+01  3.739749e+00  2.534326e+01  # Hw water
    244      82    1  -1.112800  2.049429e+01  2.719087e+01  2.085072e+00  # Ow water
    245      82    2   0.556400  2.097314e+01  2.660407e+01  1.499759e+00  # Hw water
    246      82    2   0.556400  2.001637e+01  2.777730e+01  1.498625e+00  # Hw water
    247      83    1  -1.112800  1.664821e+00  3.022534e+01  1.445482e+01  # Ow water
    248      83    2   0.556400  1.497434e+00  3.030689e+01  1.351590e+01  # Hw water
    249      83    2   0.556400  1.560014e+00  2.929151e+01  1.463706e+01  # Hw water
    250      84    1  -1.112800  2.705328e+01  1.888476e+01  2.284786e+01  # Ow water
    251      84    2   0.556400  2.631864e+01  1.829907e+01  2.303084e+01  # Hw water
    252      84    2   0.556400  2.750053e+01  1.848324e+01  2.210289e+01  # Hw water
    253      85    1  -1.112800  1.020123e+01  2.170717e+01  1.125319e+01  # Ow water
    254      85    2   0.556400  1.078772e+01  2.112929e+01  1.076501e+01  # Hw water
    255      85    2   0.556400  9.871743e+00  2.232313e+01  1.059877e+01  # Hw water
    256      86    1  -1.112800  1.739335e+01  3.028956e+01  3.056960e+00  # Ow water
    257      86    2   0.556400  1.646235e+01  3.036920e+01  2.849272e+00  # Hw water
    258      86    2   0.556400  1.741149e+01  2.992769e+01  3.942935e+00  # Hw water
    259      87    1  -1.112800  1.704304e+01  3.036877e+01  2.162790e+01  # Ow water
    260      87    2   0.556400  1.689026e+01  2.944232e+01  2.144195e+01  # Hw water
    261      87    2   0.556400  1.761590e+01  3.036835e+01  2.239475e+01  # Hw water
    262      88    1  -1.112800  2.807510e+01  1.401499e+01  1.008062e+01  # Ow water
    263      88    2   0.556400  2.777397e+01  1.471415e+01  9.500343e+00  # Hw water
    264      88    2   0.556400  2.836840e+01  1.332187e+01  9.489185e+00  # Hw water
    265      89    1  -1.112800  2.303455e+01  6.795048e+00  3.230016e+00  # Ow water
    266      89    2   0.556400  2.222814e+01  6.770147e+00  3.745099e+00  # Hw water
    267      89    2   0.556400  2.340006e+01  5.914347e+00  3.313688e+00  # Hw water
    268      90    1  -1.112800  2.983932e+01  1.651675e+01  1.827170e+01  # Ow water
    269      90    2   0.556400  3.033283e+01  1.586253e+01  1.777706e+01  # Hw water
    270      90    2   0.556400  3.036887e+01  1.731194e+01  1.821273e+01  # Hw water
    271      91    1  -1.112800  1.699885e+01  2.736535e+01  2.005475e+01  # Ow water
    272      91    2   0.556400  1.743217e+01  2.799409e+01  1.947757e+01  # Hw water
    273      91    2   0.556400  1.771634e+01  2.690924e+01  2.049454e+01  # Hw water
    274      92    1  -1.112800  1.162580e+01  1.865330e+01  1.669738e+00  # Ow water
    275      92    2   0.556400  1.232497e+01  1.867824e+01  2.323016e+00  # Hw water
    276      92    2   0.556400  1.148915e+01  1.772125e+01  1.499926e+00  # Hw water
    277      93    1  -1.112800  2.088253e+01  6.650125e+00  3.035430e+01  # Ow water
    278      93    2   0.556400  2.099547e+01  7.598884e+00  3.029659e+01  # Hw water
    279      93    2   0.556400  1.993409e+01  6.521780e+00  3.036873e+01  # Hw water
    280      94    1  -1.112800  1.025897e+01  2.808998e+01  3.036930e+01  # Ow water
    281      94    2   0.556400  9.456610e+00  2.756933e+01  3.033223e+01  # Hw water
    282      94    2   0.556400  1.079220e+01  2.776097e+01  2.964566e+01  # Hw water
    283      95    1  -1.112800  1.558482e+00  1.364286e+01  2.167529e+01  # Ow water
    284      95    2   0.556400  1.499115e+00  1.344473e+01  2.260987e+01  # Hw water
    285      95    2   0.556400  1.672294e+00  1.278999e+01  2.125591e+01  # Hw water
    286      96    1  -1.112800  1.606201e+00  9.467535e+00  2.102286e+01  # Ow water
    287      96    2   0.556400  1.522102e+00  1.024714e+01  2.047388e+01  # Hw water
    288      96    2   0.556400  1.500007e+00  8.734485e+00  2.041657e+01  # Hw water
    289      97    1  -1.112800  2.788582e+01  4.507235e+00  2.323199e+01  # Ow water
    290      97    2   0.556400  2.758423e+01  4.842888e+00  2.238783e+01  # Hw water
    291      97    2   0.556400  2.790164e+01  5.274806e+00  2.380366e+01  # Hw water
    292      98    1  -1.112800  2.338011e+01  1.799527e+00  2.972306e+01  # Ow water
    293      98    2   0.556400  2.400551e+01  2.127842e+00  3.036905e+01  # Hw water
    294      98    2   0.556400  2.263389e+01  1.499786e+00  3.024223e+01  # Hw water
    295      99    1  -1.112800  1.748433e+01  3.818208e+00  6.510422e+00  # Ow water
    296      99    2   0.556400  1.660555e+01  3.544768e+00  6.773499e+00  # Hw water
    297      99    2   0.556400  1.772256e+01  4.498567e+00  7.140173e+00  # Hw water
    298     100    1  -1.112800  2.224273e+01  2.777042e+01  1.166700e+01  # Ow water
    299     100    2   0.556400  2.130937e+01  2.790607e+01  1.183031e+01  # Hw water
    300     100    2   0.556400  2.249038e+01  2.848597e+01  1.108144e+01  # Hw water
    301     101    1  -1.112800  2.613933e+01  1.673409e+01  2.989126e+01  # Ow water
    302     101    2   0.556400  2.639952e+01  1.686816e+01  2.897991e+01  # Hw water
    303     101    2   0.556400  2.696582e+01  1.666153e+01  3.036862e+01  # Hw water
    304     102    1  -1.112800  2.064740e+01  9.984799e+00  2.322085e+01  # Ow water
    305     102    2   0.556400  2.144745e+01  1.000714e+01  2.269583e+01  # Hw water
    306     102    2   0.556400  1.993887e+01  9.961087e+00  2.257769e+01  # Hw water
    307     103    1  -1.112800  1.968607e+01  1.711906e+01  1.208356e+01  # Ow water
    308     103    2   0.556400  2.007874e+01  1.796214e+01  1.185716e+01  # Hw water
    309     103    2   0.556400  1.875082e+01  1.723767e+01  1.191783e+01  # Hw water
    310     104    1  -1.112800  1.798692e+01  2.403888e+01  5.535275e+00  # Ow water
    311     104    2   0.556400  1.829360e+01  2.492970e+01  5.704441e+00  # Hw water
    312     104    2   0.556400  1.769161e+01  2.405555e+01  4.624922e+00  # Hw water
    313     105    1  -1.112800  1.341672e+01  1.728073e+01  1.801062e+01  # Ow water
    314     105    2   0.556400  1.258823e+01  1.680611e+01  1.794294e+01  # Hw water
    315     105    2   0.556400  1.407797e+01  1.659605e+01  1.811155e+01  # Hw water
    316     106    1  -1.112800  8.440425e+00  4.424543e+00  2.967278e+01  # Ow water
    317     106    2   0.556400  9.280149e+00  4.422169e+00  3.013222e+01  # Hw water
    318     106    2   0.556400  7.785446e+00  4.385277e+00  3.036970e+01  # Hw water
    319     107    1  -1.112800  2.080950e+00  1.424627e+01  1.633627e+01  # Ow water
    320     107    2   0.556400  1.499913e+00  1.499626e+01  1.620922e+01  # Hw water
    321     107    2   0.556400  1.499756e+00  1.353560e+01  1.660719e+01  # Hw water
    322     108    1  -1.112800  1.485253e+01  5.028224e+00  9.127909e+00  # Ow water
    323     108    2   0.556400  1.578116e+01  4.882845e+00  8.946980e+00  # Hw water
    324     108    2   0.556400  1.445475e+01  4.160834e+00  9.052865e+00  # Hw water
    325     109    1  -1.112800  9.423376e+00  1.976058e+01  2.085621e+00  # Ow water
    326     109    2   0.556400  9.146148e+00  1.905583e+01  1.500220e+00  # Hw water
    327     109    2   0.556400  9.699762e+00  2.046487e+01  1.499262e+00  # Hw water
    328     110    1  -1.112800  8.428157e+00  2.770469e+01  1.440072e+01  # Ow water
    329     110    2   0.556400  9.085069e+00  2.789031e+01  1.372972e+01  # Hw water
    330     110    2   0.556400  8.689174e+00  2.685870e+01  1.476459e+01  # Hw water
    331     111    1  -1.112800  1.766593e+01  1.433787e+01  2.525972e+01  # Ow water
    332     111    2   0.556400  1.848002e+01  1.394217e+01  2.494841e+01  # Hw water
    333     111    2   0.556400  1.714066e+01  1.445994e+01  2.446888e+01  # Hw water
    334     112    1  -1.112800  3.036910e+01  2.979528e+01  1.538874e+01  # Ow water
    335     112    2   0.556400  3.033064e+01  3.034112e+01  1.460337e+01  # Hw water
    336     112    2   0.556400  3.007150e+01  3.036915e+01  1.609466e+01  # Hw water
    337     113    1  -1.112800  3.029023e+01  1.844669e+01  2.095213e+01  # Ow water
    338     113    2   0.556400  3.034164e+01  1.752379e+01  2.070347e+01  # Hw water
    339     113    2   0.556400  3.036150e+01  1.892253e+01  2.012464e+01  # Hw water
    340     114    1  -1.112800  2.031785e+01  7.925643e+00  1.827831e+01  # Ow water
    341     114    2   0.556400  2.060371e+01  7.213530e+00  1.885050e+01  # Hw water
    342     114    2   0.556400  2.110263e+01  8.168522e+00  1.778703e+01  # Hw water
    343     115    1  -1.112800  1.670261e+01  1.962792e+01  1.271123e+01  # Ow water
    344     115    2   0.556400  1.740451e+01  2.016416e+01  1.234245e+01  # Hw water
    345     115    2   0.556400  1.674732e+01  1.978915e+01  1.365369e+01  # Hw water
    346     116    1  -1.112800  1.781931e+00  2.233474e+01  1.171366e+01  # Ow water