created by fftool

1572 atoms
1000 bonds
500 angles
4 atom types
1 bond types
1 angle types
0.000000 25.848233 xlo xhi
0.000000 25.848233 ylo yhi
0.000000 25.848233 zlo zhi

Masses

   1   15.999  # Ow
   2    1.008  # Hw
   3   22.980  # K
   4    0.010  # Cl

Bond Coeffs

   1     0.119503     0.957200  # Ow-Hw

Angle Coeffs

   1     0.119503   104.520000  # Hw-Ow-Hw

Atoms

      1       1    1  -1.112800  1.506346e+01  2.376484e+01  2.192281e+01  # Ow water
      2       1    2   0.556400  1.528753e+01  2.434812e+01  2.119769e+01  # Hw water
      3       1    2   0.556400  1.501764e+01  2.289506e+01  2.152580e+01  # Hw water
      4       2    1  -1.112800  2.434690e+01  1.925144e+01  1.028913e+01  # Ow water
      5       2    2   0.556400  2.434688e+01  2.002350e+01  1.085495e+01  # Hw water
      6       2    2   0.556400  2.434123e+01  1.851013e+01  1.089465e+01  # Hw water
      7       3    1  -1.112800  1.400333e+01  5.884240e+00  1.612369e+01  # Ow water
      8       3    2   0.556400  1.485457e+01  5.735861e+00  1.653550e+01  # Hw water
      9       3    2   0.556400  1.336621e+01  5.656894e+00  1.680091e+01  # Hw water
     10       4    1  -1.112800  1.287399e+01  9.194303e+00  1.210301e+01  # Ow water
     11       4    2   0.556400  1.197331e+01  8.913182e+00  1.226414e+01  # Hw water
     12       4    2   0.556400  1.284795e+01  9.597561e+00  1.123530e+01  # Hw water
     13       5    1  -1.112800  1.022328e+01  2.152762e+01  1.770050e+00  # Ow water
     14       5    2   0.556400  9.964048e+00  2.240861e+01  1.500090e+00  # Hw water
     15       5    2   0.556400  1.031358e+01  2.158491e+01  2.721256e+00  # Hw water
     16       6    1  -1.112800  1.500752e+01  1.369680e+01  1.971286e+01  # Ow water
     17       6    2   0.556400  1.529497e+01  1.335714e+01  1.886537e+01  # Hw water
     18       6    2   0.556400  1.405966e+01  1.379530e+01  1.962295e+01  # Hw water
     19       7    1  -1.112800  2.080157e+01  1.219495e+01  2.434807e+01  # Ow water
     20       7    2   0.556400  2.016239e+01  1.221217e+01  2.363575e+01  # Hw water
     21       7    2   0.556400  2.119911e+01  1.132596e+01  2.429283e+01  # Hw water
     22       8    1  -1.112800  2.052269e+01  9.275182e+00  4.313369e+00  # Ow water
     23       8    2   0.556400  2.137792e+01  9.699310e+00  4.383599e+00  # Hw water
     24       8    2   0.556400  2.065846e+01  8.399764e+00  4.675914e+00  # Hw water
     25       9    1  -1.112800  2.433929e+01  1.266942e+01  2.086021e+00  # Ow water
     26       9    2   0.556400  2.433109e+01  1.191250e+01  1.500163e+00  # Hw water
     27       9    2   0.556400  2.434751e+01  1.342631e+01  1.500119e+00  # Hw water
     28      10    1  -1.112800  2.042351e+01  2.433661e+01  1.779929e+01  # Ow water
     29      10    2   0.556400  2.129036e+01  2.434808e+01  1.739350e+01  # Hw water
     30      10    2   0.556400  2.025484e+01  2.341167e+01  1.797892e+01  # Hw water
     31      11    1  -1.112800  1.038525e+01  6.308911e+00  2.373772e+01  # Ow water
     32      11    2   0.556400  9.810245e+00  6.207853e+00  2.297918e+01  # Hw water
     33      11    2   0.556400  1.126147e+01  6.120882e+00  2.340139e+01  # Hw water
     34      12    1  -1.112800  4.482285e+00  2.383312e+01  1.475445e+01  # Ow water
     35      12    2   0.556400  3.795892e+00  2.434828e+01  1.517836e+01  # Hw water
     36      12    2   0.556400  4.813820e+00  2.326007e+01  1.544577e+01  # Hw water
     37      13    1  -1.112800  1.379011e+01  2.381827e+01  4.118320e+00  # Ow water
     38      13    2   0.556400  1.337478e+01  2.434806e+01  4.798798e+00  # Hw water
     39      13    2   0.556400  1.452930e+01  2.434793e+01  3.819520e+00  # Hw water
     40      14    1  -1.112800  9.461289e+00  2.031142e+01  2.429803e+01  # Ow water
     41      14    2   0.556400  9.363551e+00  1.936053e+01  2.434792e+01  # Hw water
     42      14    2   0.556400  1.040580e+01  2.045853e+01  2.434788e+01  # Hw water
     43      15    1  -1.112800  1.508867e+01  1.748653e+01  2.434807e+01  # Ow water
     44      15    2   0.556400  1.543170e+01  1.837903e+01  2.430330e+01  # Hw water
     45      15    2   0.556400  1.531337e+01  1.710032e+01  2.350156e+01  # Hw water
     46      16    1  -1.112800  8.500680e+00  3.015005e+00  2.149798e+01  # Ow water
     47      16    2   0.556400  8.634863e+00  3.435889e+00  2.064881e+01  # Hw water
     48      16    2   0.556400  8.118870e+00  2.163236e+00  2.128599e+01  # Hw water
     49      17    1  -1.112800  2.419057e+01  1.904506e+01  2.342990e+01  # Ow water
     50      17    2   0.556400  2.434789e+01  1.810139e+01  2.346112e+01  # Hw water
     51      17    2   0.556400  2.413733e+01  1.930999e+01  2.434816e+01  # Hw water
     52      18    1  -1.112800  1.518058e+01  1.111767e+01  2.433754e+01  # Ow water
     53      18    2   0.556400  1.551598e+01  1.154609e+01  2.355002e+01  # Hw water
     54      18    2   0.556400  1.424759e+01  1.133133e+01  2.434812e+01  # Hw water
     55      19    1  -1.112800  2.304422e+01  4.022190e+00  2.434820e+01  # Ow water
     56      19    2   0.556400  2.228355e+01  3.442307e+00  2.431147e+01  # Hw water
     57      19    2   0.556400  2.267364e+01  4.904731e+00  2.434376e+01  # Hw water
     58      20    1  -1.112800  2.581393e+00  1.276422e+01  2.210409e+01  # Ow water
     59      20    2   0.556400  3.430655e+00  1.303796e+01  2.175761e+01  # Hw water
     60      20    2   0.556400  2.028822e+00  1.354203e+01  2.202719e+01  # Hw water
     61      21    1  -1.112800  1.261158e+01  2.434776e+01  2.013201e+01  # Ow water
     62      21    2   0.556400  1.218565e+01  2.423881e+01  1.928175e+01  # Hw water
     63      21    2   0.556400  1.255119e+01  2.348538e+01  2.054294e+01  # Hw water
     64      22    1  -1.112800  6.447216e+00  2.212917e+01  1.070264e+01  # Ow water
     65      22    2   0.556400  6.881232e+00  2.203533e+01  9.854666e+00  # Hw water
     66      22    2   0.556400  7.074081e+00  2.177531e+01  1.133355e+01  # Hw water
     67      23    1  -1.112800  1.071374e+01  1.277179e+01  1.895318e+00  # Ow water
     68      23    2   0.556400  1.148431e+01  1.317946e+01  1.500025e+00  # Hw water
     69      23    2   0.556400  1.074491e+01  1.303987e+01  2.813680e+00  # Hw water
     70      24    1  -1.112800  1.263395e+01  2.201540e+01  9.344097e+00  # Ow water
     71      24    2   0.556400  1.339469e+01  2.205002e+01  9.924012e+00  # Hw water
     72      24    2   0.556400  1.213460e+01  2.125754e+01  9.648279e+00  # Hw water
     73      25    1  -1.112800  1.798631e+01  8.291778e+00  5.292970e+00  # Ow water
     74      25    2   0.556400  1.836523e+01  8.065835e+00  6.142438e+00  # Hw water
     75      25    2   0.556400  1.798693e+01  7.469205e+00  4.803479e+00  # Hw water
     76      26    1  -1.112800  2.093314e+01  1.499847e+01  2.091566e+01  # Ow water
     77      26    2   0.556400  2.185308e+01  1.516427e+01  2.112167e+01  # Hw water
     78      26    2   0.556400  2.055293e+01  1.469726e+01  2.174086e+01  # Hw water
     79      27    1  -1.112800  2.960349e+00  1.563747e+01  2.121637e+00  # Ow water
     80      27    2   0.556400  3.620016e+00  1.532986e+01  1.499991e+00  # Hw water
     81      27    2   0.556400  2.175897e+00  1.577505e+01  1.590659e+00  # Hw water
     82      28    1  -1.112800  1.943487e+01  3.705858e+00  1.424360e+01  # Ow water
     83      28    2   0.556400  1.860264e+01  4.006080e+00  1.387823e+01  # Hw water
     84      28    2   0.556400  2.007411e+01  3.868562e+00  1.354997e+01  # Hw water
     85      29    1  -1.112800  2.178959e+01  2.172498e+01  1.520034e+01  # Ow water
     86      29    2   0.556400  2.263236e+01  2.193110e+01  1.479602e+01  # Hw water
     87      29    2   0.556400  2.181620e+01  2.216665e+01  1.604913e+01  # Hw water
     88      30    1  -1.112800  2.027527e+01  1.659714e+01  1.500556e+00  # Ow water
     89      30    2   0.556400  2.072444e+01  1.743898e+01  1.576672e+00  # Hw water
     90      30    2   0.556400  1.934728e+01  1.681059e+01  1.598016e+00  # Hw water
     91      31    1  -1.112800  1.843967e+01  2.243933e+01  2.194414e+01  # Ow water
     92      31    2   0.556400  1.883430e+01  2.215192e+01  2.112080e+01  # Hw water
     93      31    2   0.556400  1.777753e+01  2.307911e+01  2.168245e+01  # Hw water
     94      32    1  -1.112800  3.898487e+00  1.886702e+01  7.186132e+00  # Ow water
     95      32    2   0.556400  4.418212e+00  1.857272e+01  6.438133e+00  # Hw water
     96      32    2   0.556400  4.132269e+00  1.826493e+01  7.892572e+00  # Hw water
     97      33    1  -1.112800  2.340373e+01  1.916408e+01  1.500276e+00  # Ow water
     98      33    2   0.556400  2.302602e+01  1.857985e+01  2.157721e+00  # Hw water
     99      33    2   0.556400  2.434825e+01  1.902549e+01  1.570349e+00  # Hw water
    100      34    1  -1.112800  1.564785e+01  1.873314e+01  1.376674e+01  # Ow water
    101      34    2   0.556400  1.495070e+01  1.859321e+01  1.312594e+01  # Hw water
    102      34    2   0.556400  1.529392e+01  1.938942e+01  1.436696e+01  # Hw water
    103      35    1  -1.112800  9.885442e+00  1.717217e+01  1.369177e+01  # Ow water
    104      35    2   0.556400  1.048522e+01  1.723267e+01  1.294824e+01  # Hw water
    105      35    2   0.556400  1.004427e+01  1.797147e+01  1.419388e+01  # Hw water
    106      36    1  -1.112800  7.723127e+00  1.908242e+01  1.554581e+01  # Ow water
    107      36    2   0.556400  7.350494e+00  1.837538e+01  1.501906e+01  # Hw water
    108      36    2   0.556400  8.044734e+00  1.971580e+01  1.490423e+01  # Hw water
    109      37    1  -1.112800  2.369217e+01  2.433789e+01  1.585982e+01  # Ow water
    110      37    2   0.556400  2.434790e+01  2.434717e+01  1.516257e+01  # Hw water
    111      37    2   0.556400  2.285273e+01  2.434712e+01  1.539995e+01  # Hw water
    112      38    1  -1.112800  1.056194e+01  1.444477e+01  9.385477e+00  # Ow water
    113      38    2   0.556400  1.038509e+01  1.387068e+01  8.640248e+00  # Hw water
    114      38    2   0.556400  1.130406e+01  1.403696e+01  9.831777e+00  # Hw water
    115      39    1  -1.112800  7.121293e+00  2.029196e+00  6.572668e+00  # Ow water
    116      39    2   0.556400  6.438765e+00  1.500028e+00  6.985421e+00  # Hw water
    117      39    2   0.556400  7.524715e+00  2.507814e+00  7.296825e+00  # Hw water
    118      40    1  -1.112800  1.857666e+01  1.101596e+01  1.832443e+01  # Ow water
    119      40    2   0.556400  1.813092e+01  1.181875e+01  1.859473e+01  # Hw water
    120      40    2   0.556400  1.847585e+01  1.042309e+01  1.906913e+01  # Hw water
    121      41    1  -1.112800  6.151398e+00  4.329953e+00  1.575162e+01  # Ow water
    122      41    2   0.556400  5.562204e+00  4.674239e+00  1.508039e+01  # Hw water
    123      41    2   0.556400  6.753707e+00  3.760396e+00  1.527302e+01  # Hw water
    124      42    1  -1.112800  7.018193e+00  1.611543e+01  7.038839e+00  # Ow water
    125      42    2   0.556400  6.252061e+00  1.666955e+01  7.187898e+00  # Hw water
    126      42    2   0.556400  6.690152e+00  1.539040e+01  6.506899e+00  # Hw water
    127      43    1  -1.112800  1.188341e+01  7.404414e+00  1.528916e+01  # Ow water
    128      43    2   0.556400  1.149521e+01  8.167210e+00  1.486059e+01  # Hw water
    129      43    2   0.556400  1.168308e+01  6.673093e+00  1.470499e+01  # Hw water
    130      44    1  -1.112800  1.058525e+01  1.103527e+01  1.063883e+01  # Ow water
    131      44    2   0.556400  1.022239e+01  1.089707e+01  1.151374e+01  # Hw water
    132      44    2   0.556400  9.989164e+00  1.166144e+01  1.022796e+01  # Hw water
    133      45    1  -1.112800  1.945863e+01  2.170383e+01  1.102936e+01  # Ow water
    134      45    2   0.556400  2.035169e+01  2.200629e+01  1.086447e+01  # Hw water
    135      45    2   0.556400  1.920868e+01  2.212943e+01  1.184950e+01  # Hw water
    136      46    1  -1.112800  1.931161e+01  2.425039e+01  6.552792e+00  # Ow water
    137      46    2   0.556400  1.856289e+01  2.434765e+01  7.141159e+00  # Hw water
    138      46    2   0.556400  2.007663e+01  2.434897e+01  7.119589e+00  # Hw water
    139      47    1  -1.112800  1.421086e+01  1.818241e+01  3.981493e+00  # Ow water
    140      47    2   0.556400  1.512560e+01  1.843861e+01  3.863908e+00  # Hw water
    141      47    2   0.556400  1.370916e+01  1.894580e+01  3.695539e+00  # Hw water
    142      48    1  -1.112800  7.030161e+00  2.039753e+00  1.500006e+00  # Ow water
    143      48    2   0.556400  6.239651e+00  1.500079e+00  1.508642e+00  # Hw water
    144      48    2   0.556400  7.693807e+00  1.500189e+00  1.929743e+00  # Hw water
    145      49    1  -1.112800  1.617475e+01  1.078813e+01  8.002780e+00  # Ow water
    146      49    2   0.556400  1.583771e+01  9.920259e+00  7.780445e+00  # Hw water
    147      49    2   0.556400  1.684552e+01  1.096153e+01  7.342311e+00  # Hw water
    148      50    1  -1.112800  1.806317e+01  1.455057e+01  1.887964e+01  # Ow water
    149      50    2   0.556400  1.738473e+01  1.507353e+01  1.930680e+01  # Hw water
    150      50    2   0.556400  1.866934e+01  1.432208e+01  1.958432e+01  # Hw water
    151      51    1  -1.112800  7.697698e+00  1.473640e+01  3.069961e+00  # Ow water
    152      51    2   0.556400  8.194814e+00  1.393636e+01  3.240362e+00  # Hw water
    153      51    2   0.556400  7.232066e+00  1.490852e+01  3.888368e+00  # Hw water
    154      52    1  -1.112800  2.537536e+00  2.434827e+01  6.156272e+00  # Ow water
    155      52    2   0.556400  2.804150e+00  2.343043e+01  6.208347e+00  # Hw water
    156      52    2   0.556400  1.581237e+00  2.431910e+01  6.126788e+00  # Hw water
    157      53    1  -1.112800  4.970657e+00  2.167968e+01  6.325981e+00  # Ow water
    158      53    2   0.556400  5.680448e+00  2.225783e+01  6.605587e+00  # Hw water
    159      53    2   0.556400  5.392684e+00  2.104343e+01  5.748659e+00  # Hw water
    160      54    1  -1.112800  1.508042e+00  2.381587e+01  3.632711e+00  # Ow water
    161      54    2   0.556400  1.499288e+00  2.434935e+01  2.838007e+00  # Hw water
    162      54    2   0.556400  2.424452e+00  2.356147e+01  3.740904e+00  # Hw water
    163      55    1  -1.112800  1.524079e+00  4.625914e+00  2.201797e+01  # Ow water
    164      55    2   0.556400  1.602472e+00  3.724195e+00  2.170654e+01  # Hw water
    165      55    2   0.556400  1.500067e+00  5.154147e+00  2.122008e+01  # Hw water
    166      56    1  -1.112800  1.197567e+01  7.161214e+00  1.976584e+01  # Ow water
    167      56    2   0.556400  1.121950e+01  7.747636e+00  1.974271e+01  # Hw water
    168      56    2   0.556400  1.178172e+01  6.493432e+00  1.910806e+01  # Hw water
    169      57    1  -1.112800  2.065446e+01  1.984523e+00  4.247497e+00  # Ow water
    170      57    2   0.556400  2.116915e+01  1.805154e+00  3.460631e+00  # Hw water
    171      57    2   0.556400  1.983722e+01  1.504295e+00  4.114356e+00  # Hw water
    172      58    1  -1.112800  1.746828e+01  1.499904e+00  2.434467e+01  # Ow water
    173      58    2   0.556400  1.651109e+01  1.500347e+00  2.434787e+01  # Hw water
    174      58    2   0.556400  1.770522e+01  1.575156e+00  2.342032e+01  # Hw water
    175      59    1  -1.112800  1.834409e+01  1.617906e+01  2.210541e+01  # Ow water
    176      59    2   0.556400  1.794380e+01  1.532464e+01  2.194428e+01  # Hw water
    177      59    2   0.556400  1.856470e+01  1.650883e+01  2.123431e+01  # Hw water
    178      60    1  -1.112800  1.357141e+01  5.370160e+00  2.192063e+01  # Ow water
    179      60    2   0.556400  1.357181e+01  6.321586e+00  2.181567e+01  # Hw water
    180      60    2   0.556400  1.446930e+01  5.156317e+00  2.217422e+01  # Hw water
    181      61    1  -1.112800  2.417291e+01  1.965292e+01  1.343812e+01  # Ow water
    182      61    2   0.556400  2.434778e+01  2.017115e+01  1.422368e+01  # Hw water
    183      61    2   0.556400  2.434816e+01  1.874980e+01  1.370247e+01  # Hw water
    184      62    1  -1.112800  1.568450e+00  2.391404e+01  2.434889e+01  # Ow water
    185      62    2   0.556400  1.499971e+00  2.298078e+01  2.414748e+01  # Hw water
    186      62    2   0.556400  1.500101e+00  2.434867e+01  2.349880e+01  # Hw water
    187      63    1  -1.112800  8.710261e+00  2.206829e+01  4.711026e+00  # Ow water
    188      63    2   0.556400  8.042133e+00  2.157073e+01  5.182480e+00  # Hw water
    189      63    2   0.556400  9.180645e+00  2.254581e+01  5.394353e+00  # Hw water
    190      64    1  -1.112800  1.112721e+01  1.947741e+01  3.997669e+00  # Ow water
    191      64    2   0.556400  1.101152e+01  1.992926e+01  4.833537e+00  # Hw water
    192      64    2   0.556400  1.116852e+01  1.854976e+01  4.230025e+00  # Hw water
    193      65    1  -1.112800  1.223508e+01  1.926370e+01  1.223831e+01  # Ow water
    194      65    2   0.556400  1.165805e+01  2.002495e+01  1.217691e+01  # Hw water
    195      65    2   0.556400  1.286226e+01  1.937978e+01  1.152460e+01  # Hw water
    196      66    1  -1.112800  1.974005e+01  1.757704e+01  1.775234e+01  # Ow water
    197      66    2   0.556400  1.916263e+01  1.698181e+01  1.823037e+01  # Hw water
    198      66    2   0.556400  1.927282e+01  1.776196e+01  1.693765e+01  # Hw water
    199      67    1  -1.112800  2.379067e+01  7.697485e+00  1.452883e+01  # Ow water
    200      67    2   0.556400  2.434799e+01  8.044589e+00  1.383231e+01  # Hw water
    201      67    2   0.556400  2.434799e+01  7.702414e+00  1.530704e+01  # Hw water
    202      68    1  -1.112800  2.423887e+01  1.141851e+01  2.028053e+01  # Ow water
    203      68    2   0.556400  2.434795e+01  1.175813e+01  2.116878e+01  # Hw water
    204      68    2   0.556400  2.434783e+01  1.047180e+01  2.037050e+01  # Hw water
    205      69    1  -1.112800  2.191273e+01  1.754518e+01  2.356903e+01  # Ow water
    206      69    2   0.556400  2.212228e+01  1.695562e+01  2.284464e+01  # Hw water
    207      69    2   0.556400  2.223860e+01  1.709387e+01  2.434772e+01  # Hw water
    208      70    1  -1.112800  6.282240e+00  1.939134e+01  1.786223e+01  # Ow water
    209      70    2   0.556400  6.823155e+00  1.863651e+01  1.809432e+01  # Hw water
    210      70    2   0.556400  5.456454e+00  1.924586e+01  1.832390e+01  # Hw water
    211      71    1  -1.112800  3.355603e+00  2.409677e+01  1.782525e+01  # Ow water
    212      71    2   0.556400  2.938215e+00  2.434832e+01  1.864911e+01  # Hw water
    213      71    2   0.556400  4.275903e+00  2.433345e+01  1.794040e+01  # Hw water
    214      72    1  -1.112800  1.451925e+01  1.635734e+01  2.114022e+01  # Ow water
    215      72    2   0.556400  1.405353e+01  1.567435e+01  2.162278e+01  # Hw water
    216      72    2   0.556400  1.542992e+01  1.606287e+01  2.112629e+01  # Hw water
    217      73    1  -1.112800  2.100045e+01  2.388822e+01  4.023369e+00  # Ow water
    218      73    2   0.556400  2.139366e+01  2.433703e+01  4.771817e+00  # Hw water
    219      73    2   0.556400  2.017369e+01  2.434738e+01  3.875461e+00  # Hw water
    220      74    1  -1.112800  6.493163e+00  2.421277e+01  1.937182e+01  # Ow water
    221      74    2   0.556400  7.246388e+00  2.434804e+01  1.879686e+01  # Hw water
    222      74    2   0.556400  6.837752e+00  2.434788e+01  2.025456e+01  # Hw water
    223      75    1  -1.112800  1.646119e+01  6.833920e+00  1.459563e+01  # Ow water
    224      75    2   0.556400  1.702918e+01  6.079402e+00  1.443971e+01  # Hw water
    225      75    2   0.556400  1.701767e+01  7.462162e+00  1.505593e+01  # Hw water
    226      76    1  -1.112800  8.551080e+00  7.466144e+00  2.031237e+01  # Ow water
    227      76    2   0.556400  8.505938e+00  7.540328e+00  1.935912e+01  # Hw water
    228      76    2   0.556400  8.844488e+00  6.568696e+00  2.046962e+01  # Hw water
    229      77    1  -1.112800  2.434810e+01  2.206590e+01  1.760348e+01  # Ow water
    230      77    2   0.556400  2.345206e+01  2.198908e+01  1.793127e+01  # Hw water
    231      77    2   0.556400  2.428227e+01  2.185247e+01  1.667270e+01  # Hw water
    232      78    1  -1.112800  1.979379e+00  5.741469e+00  6.822549e+00  # Ow water
    233      78    2   0.556400  1.500109e+00  5.898076e+00  7.636185e+00  # Hw water
    234      78    2   0.556400  1.500081e+00  5.032095e+00  6.394424e+00  # Hw water
    235      79    1  -1.112800  1.984689e+01  9.366583e+00  1.520300e+01  # Ow water
    236      79    2   0.556400  1.980760e+01  1.024689e+01  1.557682e+01  # Hw water
    237      79    2   0.556400  1.927917e+01  8.840962e+00  1.576661e+01  # Hw water
    238      80    1  -1.112800  6.606577e+00  1.921877e+01  2.433734e+01  # Ow water
    239      80    2   0.556400  6.827993e+00  1.928136e+01  2.340821e+01  # Hw water
    240      80    2   0.556400  5.705647e+00  1.889560e+01  2.434811e+01  # Hw water
    241      81    1  -1.112800  2.207886e+01  4.723568e+00  3.949374e+00  # Ow water
    242      81    2   0.556400  2.210563e+01  5.606292e+00  3.580172e+00  # Hw water
    243      81    2   0.556400  2.114808e+01  4.550724e+00  4.090824e+00  # Hw water
    244      82    1  -1.112800  1.138960e+01  1.492407e+01  1.865232e+01  # Ow water
    245      82    2   0.556400  1.178881e+01  1.567043e+01  1.909931e+01  # Hw water
    246      82    2   0.556400  1.117489e+01  1.431040e+01  1.935484e+01  # Hw water
    247      83    1  -1.112800  6.623965e+00  4.418927e+00  1.260185e+01  # Ow water
    248      83    2   0.556400  6.995673e+00  4.200473e+00  1.174725e+01  # Hw water
    249      83    2   0.556400  5.831551e+00  4.916046e+00  1.239892e+01  # Hw water
    250      84    1  -1.112800  2.096594e+01  1.136357e+01  9.614204e+00  # Ow water
    251      84    2   0.556400  2.173870e+01  1.192792e+01  9.590053e+00  # Hw water
    252      84    2   0.556400  2.083136e+01  1.118060e+01  1.054406e+01  # Hw water
    253      85    1  -1.112800  3.978486e+00  2.120823e+01  1.926839e+01  # Ow water
    254      85    2   0.556400  4.272550e+00  2.210650e+01  1.911719e+01  # Hw water
    255      85    2   0.556400  3.078337e+00  2.129975e+01  1.958078e+01  # Hw water
    256      86    1  -1.112800  1.797464e+01  1.263469e+01  2.163429e+01  # Ow water
    257      86    2   0.556400  1.775631e+01  1.266879e+01  2.256563e+01  # Hw water
    258      86    2   0.556400  1.713109e+01  1.270456e+01  2.118733e+01  # Hw water
    259      87    1  -1.112800  1.973231e+00  1.058882e+01  4.246644e+00  # Ow water
    260      87    2   0.556400  1.500419e+00  9.759222e+00  4.313328e+00  # Hw water
    261      87    2   0.556400  1.500538e+00  1.108118e+01  3.575548e+00  # Hw water
    262      88    1  -1.112800  2.368516e+01  4.272138e+00  2.088059e+00  # Ow water
    263      88    2   0.556400  2.298063e+01  4.537408e+00  1.496871e+00  # Hw water
    264      88    2   0.556400  2.435112e+01  3.894461e+00  1.513529e+00  # Hw water
    265      89    1  -1.112800  5.251001e+00  7.246757e+00  1.417019e+01  # Ow water
    266      89    2   0.556400  5.582940e+00  7.469366e+00  1.330043e+01  # Hw water
    267      89    2   0.556400  4.370158e+00  6.907492e+00  1.401131e+01  # Hw water
    268      90    1  -1.112800  4.868966e+00  1.009020e+01  1.688999e+01  # Ow water
    269      90    2   0.556400  4.104118e+00  1.066556e+01  1.690419e+01  # Hw water
    270      90    2   0.556400  5.607723e+00  1.067699e+01  1.672831e+01  # Hw water
    271      91    1  -1.112800  2.025133e+01  5.868212e+00  9.219876e+00  # Ow water
    272      91    2   0.556400  1.934495e+01  5.851208e+00  8.912612e+00  # Hw water
    273      91    2   0.556400  2.032221e+01  6.685427e+00  9.713196e+00  # Hw water
    274      92    1  -1.112800  2.208990e+01  6.716494e+00  1.622467e+01  # Ow water
    275      92    2   0.556400  2.269465e+01  6.561582e+00  1.695028e+01  # Hw water
    276      92    2   0.556400  2.163083e+01  7.522000e+00  1.646267e+01  # Hw water
    277      93    1  -1.112800  1.512484e+00  2.128522e+01  1.581560e+00  # Ow water
    278      93    2   0.556400  1.499373e+00  2.112642e+01  2.525403e+00  # Hw water
    279      93    2   0.556400  1.532505e+00  2.223863e+01  1.498861e+00  # Hw water
    280      94    1  -1.112800  2.366826e+01  1.788674e+01  5.230162e+00  # Ow water
    281      94    2   0.556400  2.434793e+01  1.754409e+01  4.649755e+00  # Hw water
    282      94    2   0.556400  2.303471e+01  1.829727e+01  4.641686e+00  # Hw water
    283      95    1  -1.112800  1.401591e+01  6.847373e+00  2.423476e+01  # Ow water
    284      95    2   0.556400  1.357269e+01  6.006503e+00  2.434755e+01  # Hw water
    285      95    2   0.556400  1.332488e+01  7.499984e+00  2.434791e+01  # Hw water
    286      96    1  -1.112800  2.222522e+01  9.361387e+00  2.216452e+01  # Ow water
    287      96    2   0.556400  2.250568e+01  9.009035e+00  2.131988e+01  # Hw water
    288      96    2   0.556400  2.272214e+01  1.017358e+01  2.226268e+01  # Hw water
    289      97    1  -1.112800  2.352843e+01  1.356636e+01  1.854661e+01  # Ow water
    290      97    2   0.556400  2.291599e+01  1.348549e+01  1.927778e+01  # Hw water
    291      97    2   0.556400  2.434812e+01  1.385128e+01  1.895054e+01  # Hw water
    292      98    1  -1.112800  1.734251e+01  2.434796e+01  1.500038e+00  # Ow water
    293      98    2   0.556400  1.812005e+01  2.434590e+01  2.058292e+00  # Hw water
    294      98    2   0.556400  1.660810e+01  2.429033e+01  2.111228e+00  # Hw water
    295      99    1  -1.112800  1.028902e+01  1.608723e+00  2.288918e+01  # Ow water
    296      99    2   0.556400  1.080087e+01  1.504383e+00  2.369127e+01  # Hw water
    297      99    2   0.556400  1.092557e+01  1.500748e+00  2.218252e+01  # Hw water
    298     100    1  -1.112800  4.311812e+00  1.162988e+01  2.434806e+01  # Ow water
    299     100    2   0.556400  3.952163e+00  1.251635e+01  2.431569e+01  # Hw water
    300     100    2   0.556400  4.224508e+00  1.130263e+01  2.345278e+01  # Hw water
    301     101    1  -1.112800  1.501338e+00  1.654072e+00  9.462527e+00  # Ow water
    302     101    2   0.556400  2.407493e+00  1.500121e+00  9.729753e+00  # Hw water
    303     101    2   0.556400  1.500442e+00  1.500872e+00  8.517668e+00  # Hw water
    304     102    1  -1.112800  2.144097e+01  1.694195e+01  7.046441e+00  # Ow water
    305     102    2   0.556400  2.182409e+01  1.645290e+01  6.318234e+00  # Hw water
    306     102    2   0.556400  2.208516e+01  1.762174e+01  7.244278e+00  # Hw water
    307     103    1  -1.112800  2.362985e+01  1.358872e+01  4.333690e+00  # Ow water
    308     103    2   0.556400  2.434802e+01  1.308231e+01  4.713159e+00  # Hw water
    309     103    2   0.556400  2.357750e+01  1.437513e+01  4.876883e+00  # Hw water
    310     104    1  -1.112800  7.591214e+00  5.880337e+00  6.309584e+00  # Ow water
    311     104    2   0.556400  7.022369e+00  5.112755e+00  6.368422e+00  # Hw water
    312     104    2   0.556400  7.707085e+00  6.021718e+00  5.370002e+00  # Hw water
    313     105    1  -1.112800  9.676579e+00  1.570220e+00  9.117937e+00  # Ow water
    314     105    2   0.556400  8.921372e+00  2.017439e+00  9.499887e+00  # Hw water
    315     105    2   0.556400  1.030341e+01  1.500155e+00  9.837937e+00  # Hw water
    316     106    1  -1.112800  1.774814e+01  1.803115e+01  1.201764e+01  # Ow water
    317     106    2   0.556400  1.720155e+01  1.862526e+01  1.150334e+01  # Hw water
    318     106    2   0.556400  1.722456e+01  1.723408e+01  1.209997e+01  # Hw water
    319     107    1  -1.112800  1.546536e+00  3.940190e+00  1.581707e+01  # Ow water
    320     107    2   0.556400  2.223719e+00  4.616238e+00  1.579234e+01  # Hw water
    321     107    2   0.556400  1.500178e+00  3.613961e+00  1.491837e+01  # Hw water
    322     108    1  -1.112800  7.338276e+00  1.114476e+01  1.501003e+00  # Ow water
    323     108    2   0.556400  7.910568e+00  1.187954e+01  1.721948e+00  # Hw water
    324     108    2   0.556400  7.175721e+00  1.070741e+01  2.336785e+00  # Hw water
    325     109    1  -1.112800  1.278450e+01  8.614725e+00  4.354385e+00  # Ow water
    326     109    2   0.556400  1.183431e+01  8.632765e+00  4.468602e+00  # Hw water
    327     109    2   0.556400  1.294099e+01  7.880099e+00  3.761035e+00  # Hw water
    328     110    1  -1.112800  1.439509e+01  2.384314e+01  1.400131e+01  # Ow water
    329     110    2   0.556400  1.358247e+01  2.434806e+01  1.397070e+01  # Hw water
    330     110    2   0.556400  1.496977e+01  2.434796e+01  1.457676e+01  # Hw water
    331     111    1  -1.112800  1.081785e+01  2.432341e+01  8.220659e+00  # Ow water
    332     111    2   0.556400  1.054604e+01  2.343635e+01  8.456179e+00  # Hw water
    333     111    2   0.556400  1.075524e+01  2.434805e+01  7.265829e+00  # Hw water
    334     112    1  -1.112800  2.098341e+01  9.131489e+00  1.878397e+01  # Ow water
    335     112    2   0.556400  2.189805e+01  8.856920e+00  1.884932e+01  # Hw water
    336     112    2   0.556400  2.095606e+01  9.692558e+00  1.800893e+01  # Hw water
    337     113    1  -1.112800  1.257775e+01  9.890296e+00  2.094370e+00  # Ow water
    338     113    2   0.556400  1.314040e+01  9.349359e+00  1.540263e+00  # Hw water
    339     113    2   0.556400  1.221675e+01  1.054818e+01  1.500141e+00  # Hw water
    340     114    1  -1.112800  2.218791e+01  2.176340e+01  5.842912e+00  # Ow water
    341     114    2   0.556400  2.224189e+01  2.088235e+01  6.213131e+00  # Hw water
    342     114    2   0.556400  2.141338e+01  2.174055e+01  5.280950e+00  # Hw water
    343     115    1  -1.112800  1.113615e+01  5.803316e+00  4.259969e+00  # Ow water
    344     115    2   0.556400  1.018112e+01  5.848137e+00  4.213631e+00  # Hw water