1572
Atoms. Timestep: 0
Ow 19.0547 16.7106 22.2577
H 19.4012 16.6869 21.3658
H 18.9334 17.6418 22.4434
Ow 5.70692 7.90245 14.3911
H 5.17581 7.81618 13.5995
H 6.44386 7.30771 14.2517
Ow 23.3258 2.12356 21.5123
H 22.7718 2.90412 21.5222
H 22.8211 1.47738 21.0184
Ow 0.101762 24.266 2.2256
H 0.412822 23.9185 1.3897
H 0.810281 24.0795 2.8416
Ow 23.4859 20.9529 23.0447
H 23.7976 21.7982 22.7216
H 23.3311 20.436 22.254
Ow 13.8755 21.9102 22.1728
H 13.8881 21.1991 22.8134
H 13.7825 22.7049 22.6982
Ow 1.86712 9.3084 14.4113
H 0.997782 8.90814 14.4279
H 2.18341 9.23277 15.3115
Ow 22.2536 20.9503 8.0348
H 22.4358 20.5121 7.20353
H 21.9045 21.8055 7.78382
Ow 24.0739 13.8977 18.4584
H 23.1508 14.048 18.255
H 24.3184 13.144 17.9214
Ow 23.2838 3.66337 2.34155
H 23.1277 3.73791 1.40013
H 24.1733 3.99495 2.46426
Ow 17.9206 17.132 6.19742
H 18.4211 16.3204 6.11346
H 17.0277 16.8446 6.38823
Ow 3.20444 17.3137 19.9639
H 3.99065 16.7683 19.9886
H 3.20715 17.6991 19.0877
Ow 2.81039 2.74992 3.53722
H 2.163 2.30152 4.08133
H 3.64887 2.36996 3.79954
Ow 13.5927 23.3244 3.99293
H 13.8885 23.8696 3.26394
H 14.2209 22.6028 4.02334
Ow 16.487 2.7613 19.8964
H 16.1356 2.44261 19.065
H 17.2878 3.227 19.6557
Ow 24.7692 25.5891 9.60969
H 24.2245 24.8638 9.91532
H 24.2278 0.733178 9.74089
Ow 25.2376 11.4183 14.496
H 24.6812 10.7007 14.193
H 0.359152 11.4 13.9092
Ow 24.1971 24.9818 18.3167
H 24.1472 24.0407 18.1491
H 23.3089 25.2268 18.5761
Ow 21.437 17.44 4.22942
H 21.9105 17.9432 4.89185
H 20.5307 17.7388 4.30337
Ow 8.28903 9.70887 19.0247
H 7.38272 9.69772 18.7169
H 8.23675 9.41918 19.9355
Ow 7.84973 23.5727 18.9508
H 7.78545 22.9947 18.1905
H 7.80862 24.4562 18.5847
Ow 17.6999 24.141 4.60816
H 17.297 23.9087 3.77153
H 17.592 25.09 4.67122
Ow 13.4727 21.5787 12.0815
H 12.5479 21.7059 12.2931
H 13.829 21.1087 12.8354
Ow 15.5753 8.20735 20.817
H 14.7632 8.68295 20.6422
H 15.2884 7.3513 21.1349
Ow 7.09839 25.3705 5.00681
H 6.56957 0.496541 4.76541
H 6.46956 24.6518 5.07182
Ow 15.9302 18.9802 7.57575
H 15.3258 19.2468 8.2685
H 15.4068 18.4191 7.00351
Ow 7.71949 16.2032 16.8899
H 8.20669 16.9185 17.2988
H 7.04173 15.9791 17.5276
Ow 18.8964 10.1556 19.6932
H 18.9382 9.2202 19.4944
H 19.3178 10.5789 18.9453
Ow 24.7935 16.8748 7.05684
H 24.6956 16.7635 6.11119
H 0.100413 16.9869 7.18911
Ow 25.4879 19.2033 3.7016
H 24.6537 19.1492 4.16798
H 0.514437 19.2232 4.39362
Ow 17.2121 20.0123 24.9273
H 16.289 19.926 24.6892
H 17.6716 20.0703 24.0896
Ow 7.91917 1.85412 11.1514
H 7.6862 2.34355 11.9403
H 7.12714 1.87363 10.6142
Ow 11.5491 10.2523 0.599545
H 11.3449 9.55177 1.21905
H 10.8469 10.8916 0.720287
Ow 2.94922 17.9565 5.26049
H 3.83469 18.0305 4.90451
H 2.84731 18.7314 5.81319
Ow 5.39109 15.0011 18.4763
H 4.47405 15.0947 18.2184
H 5.35991 14.8388 19.4191
Ow 7.59627 21.0114 5.92705
H 7.20733 21.8304 6.23406
H 6.85139 20.488 5.63134
Ow 22.2529 0.652205 0.946072
H 21.3414 0.88987 1.1158
H 22.2353 25.3369 0.828128
Ow 22.7797 21.4681 1.95754
H 23.0341 20.71 1.43147
H 22.0856 21.1409 2.52986
Ow 3.91917 24.057 8.1096
H 3.22986 23.5855 7.64181
H 4.02886 23.5721 8.92762
Ow 23.2934 16.0853 14.2248
H 23.2869 16.5596 15.0561
H 23.8002 16.6427 13.6343
Ow 2.69458 8.37648 8.12258
H 2.3843 9.23479 8.41112
H 3.64885 8.44111 8.16035
Ow 14.4432 17.3704 14.8209
H 13.8865 16.7877 14.3044
H 14.2849 18.2405 14.4546
Ow 8.87399 2.30959 3.29407
H 8.87163 3.24096 3.07322
H 8.0243 2.15902 3.7083
Ow 13.1952 1.73978 24.0105
H 12.9728 1.02517 23.4138
H 13.4056 2.47571 23.4357
Ow 13.7474 10.8958 4.12676
H 13.121 11.2528 4.75645
H 13.5787 11.3812 3.31913
Ow 23.4044 3.46871 17.492
H 23.9422 3.52203 16.702
H 23.1585 4.37519 17.6765
Ow 1.13242 22.1391 11.9653
H 1.66809 21.6051 12.552
H 1.16304 21.6785 11.1267
Ow 13.206 24.6422 22.8982
H 12.4207 24.1522 23.1423
H 13.8489 24.4152 23.57
Ow 20.3878 18.3972 25.6466
H 19.4922 18.1393 0.230366
H 20.3402 19.3446 25.5183
Ow 23.3695 23.8885 3.47644
H 24.1916 24.3294 3.26208
H 23.3565 23.1167 2.9103
Ow 8.84069 3.99685 17.0988
H 8.23853 4.57256 17.5702
H 8.29965 3.25629 16.8248
Ow 19.9125 19.0606 14.4008
H 20.3075 19.3623 15.2188
H 19.2883 19.7478 14.1679
Ow 15.5323 7.79297 13.287
H 15.4847 7.17239 14.0142
H 15.4746 8.65368 13.7018
Ow 7.3898 21.9885 16.7607
H 8.21815 22.2475 16.357
H 6.73595 22.1236 16.0749
Ow 21.4344 7.38911 2.40542
H 21.1872 6.612 2.90663
H 21.3839 7.11096 1.49091
Ow 0.808538 9.91428 21.6485
H 0.149903 9.45439 22.169
H 1.01164 9.31244 20.9324
Ow 18.1501 4.66006 3.57313
H 19.0858 4.49035 3.68234
H 17.8191 3.89061 3.10986
Ow 18.1085 4.51015 17.0121
H 18.2598 5.42044 16.7578
H 17.1566 4.41111 16.9945
Ow 12.453 4.80263 16.4777
H 13.1412 5.04646 17.0966
H 11.8595 5.55363 16.4706
Ow 22.6886 9.03817 7.91779
H 23.5613 9.37773 7.71979
H 22.3515 9.62348 8.59604
Ow 24.7942 22.1363 9.0388
H 25.5459 21.5669 8.87437
H 24.061 21.6958 8.60918
Ow 9.68657 17.3721 24.8469
H 8.80834 17.7469 24.7799
H 9.68809 16.6503 24.2182
Ow 14.4057 23.18 25.0878
H 14.5746 23.8024 0.160681
H 14.1709 22.3667 25.5347
Ow 15.1513 2.08491 0.453781
H 14.8162 2.96175 0.641009
H 14.799 1.87283 25.2239
Ow 19.4724 14.5512 3.1516
H 18.5547 14.6794 2.91163
H 19.8367 14.0294 2.43659
Ow 17.886 8.97627 0.17968
H 18.3432 8.89317 24.9773
H 18.1261 8.18625 0.663869
Ow 20.921 4.6455 12.4402
H 20.6635 4.12301 13.1997
H 21.6782 5.1482 12.7402
Ow 8.98948 9.1004 12.4944
H 9.65969 8.96332 11.8249
H 8.58088 8.24179 12.6043
Ow 13.668 14.411 3.47184
H 13.0338 15.1006 3.66816
H 13.2036 13.8194 2.87971
Ow 2.92878 22.673 23.5907
H 3.26871 21.7798 23.5367
H 2.07164 22.6296 23.1668
Ow 20.9668 2.79606 23.8852
H 20.1492 2.61498 23.4215
H 20.7186 3.40554 24.5803
Ow 16.3987 11.2616 18.9049
H 16.7021 12.0449 18.446
H 17.1844 10.9088 19.3227
Ow 2.68129 14.7169 17.1923
H 2.41592 13.8456 17.4867
H 1.91639 15.2687 17.3557
Ow 22.274 23.4808 0.336479
H 23.0591 23.5894 25.4342
H 22.4567 22.7117 0.876179
Ow 8.04518 12.1348 20.5877
H 7.9667 11.4035 19.9752
H 7.27195 12.0631 21.1474
Ow 1.83356 15.3833 10.1883
H 1.78076 15.0006 9.31254
H 2.77151 15.4308 10.3733
Ow 15.9591 14.483 16.3162
H 16.546 14.3827 17.0657
H 16.5001 14.2659 15.557
Ow 22.0935 9.36354 20.83
H 21.4854 9.68749 20.1654
H 21.9138 8.42481 20.8824
Ow 20.3283 23.06 12.7335
H 20.5437 23.1574 13.661
H 21.0006 22.4705 12.3917
Ow 17.6264 20.8948 5.18026
H 17.5514 20.6607 6.10534
H 17.914 20.0889 4.75127
Ow 21.0758 15.4889 12.2217
H 20.8553 15.0713 13.0543
H 21.1443 16.4204 12.4311
Ow 4.79204 3.41232 12.4847
H 4.7043 4.2746 12.0785
H 5.69249 3.39015 12.8087
Ow 9.85002 21.8978 11.529
H 9.43223 21.0375 11.5681
H 9.50449 22.2963 10.7302
Ow 20.6896 22.001 21.41
H 21.3902 21.5888 20.9046
H 20.1452 21.2712 21.7052
Ow 17.3059 6.00823 5.82254
H 16.4699 6.4411 5.64943
H 17.5908 5.68594 4.96746
Ow 8.48442 8.78514 8.42561
H 8.05092 8.84582 7.57436
H 8.22828 9.58602 8.88301
Ow 17.9242 13.4171 18.1197
H 18.5958 12.7421 18.0215
H 17.8323 13.5282 19.066
Ow 23.8028 22.3665 5.67595
H 23.4746 22.8264 4.90325
H 23.6303 21.4423 5.4964
Ow 17.6979 20.7241 14.1522
H 17.6361 20.4772 15.0749
H 17.6206 21.6782 14.1534
Ow 14.7045 12.1507 11.0187
H 14.4057 12.8783 10.4733
H 15.6291 12.0463 10.7941
Ow 5.76704 3.97888 23.782
H 4.98653 3.52555 23.4634
H 5.44561 4.54683 24.4823
Ow 13.7012 25.4958 2.04175
H 12.7976 0.153846 2.16129
H 14.1685 0.641616 1.74342
Ow 13.3273 15.2322 13.1336
H 13.277 14.4496 13.6824
H 12.5876 15.1511 12.5315
Ow 22.1606 10.3671 15.841
H 21.4375 10.6189 16.4153
H 22.9478 10.5316 16.3601
Ow 6.91862 0.624708 18.6148
H 6.05254 0.360393 18.3045
H 7.39408 0.868311 17.8206
Ow 17.3661 3.48344 24.5445
H 16.9734 2.77641 25.0565
H 17.4181 3.1349 23.6545
Ow 13.5943 14.2893 22.1244
H 13.1494 13.7175 21.4988
H 13.4082 13.9006 22.9791
Ow 23.828 13.146 20.9644
H 23.1059 13.7213 21.2171
H 23.9736 13.3365 20.0377
Ow 5.80561 15.4937 21.2395
H 6.06153 14.7439 21.7767
H 5.33573 16.0709 21.8414
Ow 2.9534 18.4489 17.4792
H 3.27123 19.3477 17.3933
H 3.42355 17.9624 16.8021
Ow 25.6182 4.89516 2.43774
H 0.41423 5.24499 1.65764
H 0.632049 4.99528 3.13483
Ow 21.2748 4.53905 6.57495
H 22.1904 4.28452 6.68991
H 21.238 5.44614 6.87839
Ow 23.8745 9.86278 1.29607
H 24.7312 9.76609 0.880332
H 23.3447 10.3281 0.648676
Ow 7.12756 1.8349 21.1923
H 7.1463 1.47896 20.3039
H 6.44284 1.33502 21.6367
Ow 10.1768 13.0907 14.0436
H 9.93221 13.6907 13.339
H 11.127 13.0047 13.9665
Ow 19.1151 9.74361 3.71396
H 19.3779 9.14355 3.01601
H 18.4476 10.3003 3.31316
Ow 1.04967 14.852 0.408993
H 1.43656 13.9992 0.210778
H 1.31525 15.4115 25.3136
Ow 3.80826 12.4561 10.7311
H 4.66523 12.2283 11.0916
H 3.20415 12.3562 11.4668
Ow 4.57784 24.6846 17.638
H 4.5117 23.8384 18.0805
H 5.06449 24.4982 16.8351
Ow 0.808754 15.3955 12.7463
H 0.904204 15.4823 11.7978
H 1.58504 14.9081 13.022
Ow 1.29536 12.0173 25.294
H 0.898759 11.1467 25.2611
H 1.73631 12.1122 24.4497
Ow 5.30373 12.0689 8.37825
H 4.9929 11.2886 7.9193
H 4.68352 12.1872 9.09769
Ow 16.3333 6.01312 25.612
H 15.7668 6.31068 24.9001
H 16.5299 5.10128 25.3971
Ow 23.8207 6.71857 25.5992
H 22.8859 6.76621 25.399
H 24.2411 7.22421 24.9037
Ow 0.78033 8.41074 2.868
H 1.104 8.13235 3.72472
H 1.27513 9.2062 2.67141
Ow 1.79028 16.5838 24.0622
H 2.41746 16.5936 23.3391
H 0.933192 16.6096 23.6368
Ow 19.3416 22.9482 0.434788
H 19.499 22.1374 25.5853
H 20.2154 23.3014 0.601801
Ow 5.56856 13.4182 15.2694
H 5.68744 13.5745 16.2062
H 5.51158 12.4659 15.1904
Ow 19.5342 17.9533 8.30602
H 19.0932 17.825 7.46623
H 18.8266 18.142 8.92236
Ow 9.48247 22.8346 15.1616
H 10.0302 22.2004 14.6989
H 10.1049 23.4317 15.5766
Ow 19.749 3.57309 15.0645
H 20.5551 3.321 15.515
H 19.1738 3.88961 15.761
Ow 0.843697 8.14825 11.2172
H 0.77099 7.35374 10.6883
H 0.820396 7.83713 12.1221
Ow 14.2524 9.15779 6.96051
H 14.6035 10.0372 6.82045
H 14.7766 8.80152 7.67779
Ow 11.3814 20.9726 8.91431
H 11.3029 20.0762 9.24075
H 11.6194 21.4885 9.68461
Ow 2.39003 13.5279 8.0667
H 2.35295 12.8408 8.73208
H 3.03382 13.213 7.43217
Ow 12.4839 6.40604 4.80056
H 11.8313 6.85727 4.26511
H 11.9711 5.9324 5.45547
Ow 7.71955 5.40297 7.43743
H 7.34378 4.91573 8.17066
H 7.21784 5.11418 6.67511
Ow 7.67622 16.3138 12.3271
H 8.0068 17.2084 12.2446
H 7.06548 16.3506 13.0632
Ow 16.4947 23.5639 22.9486
H 16.1263 23.1569 23.7327
H 17.4266 23.3478 22.9813
Ow 11.9764 19.5428 18.5322
H 12.7186 19.9206 18.0604
H 11.4709 20.2992 18.8297
Ow 0.368383 0.863042 16.9021
H 25.3833 0.533299 17.553
H 1.16643 1.04192 17.3995
Ow 24.3954 21.8214 13.5123
H 25.0572 21.9607 12.8349
H 24.2459 22.6907 13.8842
Ow 24.0188 17.367 1.6285
H 24.5777 17.8693 2.22136
H 23.5543 18.0297 1.11737
Ow 10.7723 25.7085 0.985633
H 10.8385 1.00097 0.755915
H 10.0823 25.3688 0.415788
Ow 16.6136 1.5175 9.99182
H 16.4624 0.638375 10.339
H 15.795 1.74559 9.55124
Ow 9.2128 14.7536 20.6324
H 9.60773 14.9662 19.7868
H 8.80484 13.8981 20.4984
Ow 11.2853 16.8896 22.089
H 11.6733 16.828 21.2162
H 11.6784 16.1667 22.578
Ow 12.808 12.7116 14.2985
H 12.9308 12.0569 13.6112
H 13.4722 12.4989 14.954
Ow 14.148 4.51773 1.00289
H 13.248 4.79304 0.828339
H 14.6859 5.24891 0.699042
Ow 19.2757 20.6942 10.5514
H 19.0996 21.5508 10.9406
H 18.7904 20.0773 11.0993
Ow 7.47517 11.8862 25.6392
H 7.31578 11.0215 0.383087
H 6.73278 12.0322 25.0529
Ow 11.6074 8.17597 7.43065
H 10.9379 8.44478 6.80155
H 12.4174 8.56424 7.09979
Ow 11.073 23.0246 23.156
H 10.5484 23.3756 23.8756
H 11.142 22.0885 23.3437
Ow 6.31232 12.3629 12.0631
H 6.23683 11.9365 12.9167
H 7.21469 12.6808 12.0326
Ow 2.73608 1.0491 18.3917
H 3.33387 0.301814 18.3706
H 3.30318 1.81311 18.2873
Ow 20.4575 11.8732 11.927
H 20.9231 12.2586 12.6692
H 19.6865 12.429 11.8127
Ow 3.88422 10.1935 25.3893
H 4.18314 9.42275 0.237373
H 3.57274 9.84725 24.5531
Ow 17.678 11.1839 1.94583
H 17.8373 10.4283 1.38023
H 18.4554 11.732 1.83875
Ow 5.44089 3.30251 15.6404
H 6.25533 2.86416 15.3939
H 5.01531 3.50441 14.8071
Ow 13.1299 0.475976 10.9551
H 12.4542 0.106949 11.5238
H 13.7505 25.3937 10.8236
Ow 2.0872 10.8264 2.1146
H 2.78094 10.4639 2.66551
H 2.50883 10.9828 1.26961
Ow 3.71642 16.8877 15.1951
H 3.64182 16.0462 15.6452
H 4.63189 16.9319 14.9191
Ow 6.88888 9.38354 1.15877
H 7.64995 9.31452 1.73517
H 6.18254 9.68675 1.72919
Ow 13.088 12.191 1.88613
H 13.7097 12.5796 1.27074
H 12.5261 11.6384 1.34282
Ow 1.1426 0.851977 4.99737
H 1.47325 25.6501 4.66964
H 0.223528 0.682285 5.20411
Ow 18.1324 12.1314 5.98278
H 18.9085 11.6483 6.26664
H 18.391 13.0517 6.03271
Ow 4.42264 22.1447 10.265
H 5.26344 22.1536 10.7224
H 3.97638 21.3662 10.5983
Ow 22.4914 6.72456 13.4332
H 23.4298 6.7446 13.6208
H 22.0749 6.93195 14.2697
Ow 9.56573 3.34141 9.66792
H 8.85068 2.95725 10.1752
H 9.168 3.57042 8.82792
Ow 7.86758 22.9379 2.27378
H 8.29678 22.0823 2.2625
H 7.14865 22.8375 2.89771
Ow 13.6672 14.2517 9.61114
H 13.6107 14.0339 8.68076
H 12.8181 14.6419 9.81835
Ow 24.0781 3.59035 25.1187
H 24.9534 3.30359 25.3791
H 24.2294 4.37639 24.5938
Ow 5.67075 11.9309 21.9646
H 5.29673 12.163 22.8146
H 4.95565 12.0659 21.3428
Ow 10.3656 22.2333 6.30751
H 10.7792 21.9025 7.10486
H 9.42783 22.2151 6.49831
Ow 17.5748 21.1575 8.23475
H 17.1079 20.3223 8.25822
H 18.2728 21.0606 8.88249
Ow 17.0547 15.0841 22.6727
H 16.8592 14.7543 23.5498
H 17.6799 15.7944 22.8174
Ow 14.0996 16.2177 17.1624
H 14.1572 16.7182 16.3485
H 14.8062 15.5751 17.0994
Ow 0.588497 13.9874 21.9663
H 0.161762 14.7894 22.2676
H 25.6622 13.6683 21.2592
Ow 16.8903 1.2333 4.61129
H 16.991 1.89068 3.92284
H 16.0779 1.47433 5.05639
Ow 10.1831 0.857062 12.6535
H 10.8797 1.49826 12.5128
H 9.45575 1.17118 12.1164
Ow 20.724 24.7049 3.06966
H 20.5242 24.0199 3.70775
H 21.6642 24.8563 3.16663
Ow 22.9724 6.56659 5.46593
H 23.7399 6.46158 6.02818
H 22.3596 7.08209 5.99024
Ow 0.965814 8.19823 19.3267
H 1.31604 8.54461 18.506
H 1.26555 7.28949 19.351
Ow 4.16387 24.7195 13.983
H 3.796 24.5038 13.126
H 4.62601 23.9258 14.2525
Ow 0.783251 11.5591 5.62329
H 0.761392 10.6032 5.58002
H 0.587494 11.8443 4.73076
Ow 17.159 25.1489 0.265587
H 16.8307 24.9944 25.0143
H 17.3161 24.2735 0.619424
Ow 12.5143 20.2265 5.60733
H 13.1104 20.4964 4.90873
H 11.9016 20.9566 5.69542
Ow 0.621029 1.40669 23.1239
H 0.947174 0.917941 22.3683
H 0.505109 2.29997 22.8001
Ow 14.7692 3.86828 22.3492
H 14.4254 3.97509 21.4623
H 15.3649 3.12162 22.2873
Ow 24.602 18.386 12.9307
H 25.5299 18.2342 13.1102
H 24.5948 18.9002 12.1234
Ow 24.7937 2.76209 15.2697
H 25.1305 2.06255 15.8295
H 25.4948 3.41356 15.2517
Ow 16.1584 10.1557 14.5742
H 16.0628 9.75691 15.4391
H 16.9796 10.6449 14.6249
Ow 12.7591 10.5821 12.4559
H 11.9219 10.9894 12.2334
H 13.4092 11.088 11.9684
Ow 15.2431 12.6076 0.293724
H 15.4198 13.521 25.703
H 16.0999 12.1821 0.260233
Ow 5.12358 5.90649 0.0847999
H 5.54256 6.63905 25.2675
H 4.32672 6.28051 0.460774
Ow 12.5253 16.3506 19.4931
H 11.8538 15.7654 19.1425
H 13.163 16.436 18.7845
Ow 19.4126 24.0552 23.6015
H 20.0595 23.4515 23.2362
H 19.4325 23.8871 24.5436
Ow 0.139609 19.9431 19.7137
H 0.279004 19.1128 19.2582
H 24.8224 20.0377 19.7543
Ow 21.5316 7.48552 15.7476
H 21.7249 8.37878 16.032
H 20.5916 7.48937 15.5668
Ow 2.13778 22.9785 6.60286
H 1.23367 22.9471 6.91563
H 2.38939 22.0603 6.50363
Ow 0.632807 4.02873 22.7071
H 25.6815 4.63262 22.2505
H 0.861218 4.48306 23.5181
Ow 18.1649 11.7136 15.3071
H 18.5484 12.4914 14.9019
H 18.8291 11.4144 15.9281
Ow 23.3094 14.88 10.8638
H 23.0624 14.2585 10.1789
H 22.4802 15.1295 11.2718
Ow 18.4663 8.52675 6.2504
H 18.0394 7.67177 6.19572
H 18.547 8.81331 5.34068
Ow 12.0032 23.966 14.1644
H 12.8052 23.8746 14.6788
H 11.5959 24.7666 14.495
Ow 6.30137 16.0438 14.6184
H 7.00646 16.1893 15.2492
H 6.1316 15.1027 14.6612
Ow 3.05223 9.12479 23.0552
H 2.61395 8.41277 23.5212
H 2.39778 9.44343 22.4336
Ow 12.8265 15.3475 25.3879
H 12.4097 16.0402 0.266027
H 13.4221 15.8103 24.7986
Ow 1.09626 0.193682 20.7647
H 1.5035 0.577638 19.9882
H 0.801143 24.9637 20.4784
Ow 5.91199 10.8369 14.6029
H 5.6557 9.91874 14.5162
H 6.85728 10.8093 14.7508
Ow 6.98925 19.5871 21.1537
H 6.07408 19.4487 20.9097
H 6.9507 19.9225 22.0494
Ow 11.644 12.7241 20.6735
H 10.9344 13.3606 20.5859
H 11.8197 12.4357 19.7779
Ow 1.74538 18.4881 14.1494
H 1.17965 18.5089 14.9212
H 2.37364 17.7892 14.3311
Ow 16.2122 8.98295 17.1928
H 15.2952 8.74147 17.0627
H 16.1773 9.79107 17.7046
Ow 14.7301 2.37385 6.0383
H 13.918 2.86447 6.16537
H 15.3688 2.81852 6.59553
Ow 16.8536 24.0085 7.2135
H 17.051 23.8536 6.28978
H 16.6835 23.1373 7.57183
Ow 14.1457 14.0565 6.80324
H 13.5657 13.7706 6.09751
H 14.669 13.2827 7.01214
Ow 1.44196 22.8671 16.8871
H 0.913636 22.2036 16.4435
H 1.18603 23.6924 16.4753
Ow 24.5799 1.94448 12.6708
H 24.6681 2.24091 13.5767
H 24.8901 2.68216 12.1456
Ow 3.01808 24.2085 11.5799
H 3.84723 23.9986 11.1501
H 2.59586 23.36 11.7141
Ow 5.29811 9.7859 10.8896
H 6.0808 10.1268 11.3225
H 5.62614 9.37418 10.0901
Ow 7.88637 11.2448 9.60336
H 8.24872 11.8218 10.2757
H 6.98251 11.5406 9.49493
Ow 10.036 9.60597 5.32025
H 9.83114 9.41593 4.40474
H 10.5389 10.4198 5.28971
Ow 3.61953 19.8222 22.9288
H 2.69835 19.7038 22.6972
H 3.98737 20.3238 22.2013
Ow 13.0211 3.9749 3.39313
H 12.9134 4.82973 3.81013
H 13.4792 4.16346 2.57406
Ow 1.04613 8.14623 5.85234
H 0.468405 7.39297 5.97506
H 1.58094 8.17029 6.64583
Ow 20.2414 22.7983 5.09256
H 20.4471 21.9927 4.61823
H 19.3102 22.9441 4.92538
Ow 15.2462 6.34615 22.9884
H 14.3224 6.55389 23.1283
H 15.245 5.43741 22.6877
Ow 6.41044 7.21043 21.7614
H 6.22243 7.41014 22.6784
H 5.74994 7.69808 21.2693
Ow 18.6523 18.5533 3.83025
H 18.2188 17.9947 4.47542
H 18.1924 18.3742 3.0101
Ow 21.8451 2.04625 15.893
H 22.3429 2.63343 16.4618
H 21.2354 1.60147 16.4818
Ow 22.5931 21.8304 11.3317
H 22.9274 21.5961 12.1975
H 23.2806 21.5533 10.726
Ow 11.5878 6.04475 20.8612
H 12.3596 5.48937 20.7514
H 11.7746 6.822 20.3346
Ow 19.1664 0.359 21.6563
H 20.0407 0.381142 21.2674
H 19.2425 25.375 22.3829
Ow 16.8931 20.0312 20.2319
H 17.3842 19.9697 21.0512
H 17.5608 20.1807 19.5625
Ow 5.68024 1.85896 1.28864
H 4.83858 2.15746 0.944064
H 6.23266 2.64064 1.28313
Ow 21.0648 13.6435 21.9688
H 21.2231 14.3494 21.3421
H 20.2155 13.2826 21.7144
Ow 0.250484 1.51674 0.279366
H 0.301649 1.42448 24.9624
H 0.861919 2.22387 0.485135
Ow 9.7201 12.191 23.8103
H 8.99849 12.1007 24.4327
H 9.76289 13.1295 23.6269
Ow 7.09494 18.0334 23.9838
H 6.61263 17.7077 24.7438
H 7.13984 18.9803 24.1158
Ow 13.1383 7.34417 11.7628
H 13.4171 6.59808 11.2319
H 13.9372 7.64006 12.1992
Ow 19.357 15.4168 25.3402
H 19.6507 14.5737 25.6854
H 18.4034 15.3422 25.3038
Ow 15.0286 8.92569 0.108941
H 15.9698 8.84246 0.26205
H 14.6453 8.96397 0.98524
Ow 8.61452 15.4366 6.27307
H 8.74814 15.0409 5.41177
H 8.54271 14.6922 6.87056
Ow 8.27793 13.1057 7.49803
H 8.07775 12.4261 8.14169
H 8.13973 12.682 6.65088
Ow 6.35323 4.1425 9.35319
H 6.23154 4.6865 10.1313
H 5.90399 3.3231 9.56057
Ow 9.766 4.02181 21.4043
H 9.97612 3.2568 20.8687
H 10.3514 4.70766 21.0832
Ow 4.34777 15.129 10.9867
H 4.2548 14.1763 10.9884
H 5.13626 15.2922 10.4691
Ow 10.1933 18.5811 4.86185
H 10.5762 17.7083 4.7727
H 10.9455 19.1636 4.96659
Ow 12.2134 8.47007 14.4876
H 12.9225 9.03211 14.7999
H 12.1571 8.65347 13.5498
Ow 11.1724 23.2524 2.18518
H 11.4587 24.0626 1.76344
H 11.6328 23.243 3.02434
Ow 8.45203 25.5449 7.39048
H 7.84407 25.4777 6.6542
H 8.13107 24.905 8.02589
Ow 13.5597 2.69948 9.16709
H 13.104 1.91194 9.46441
H 13.1174 2.93968 8.35288
Ow 5.46634 5.84443 11.4229
H 6.19656 6.01606 12.0175
H 4.82791 6.52897 11.6231
Ow 5.58225 9.85787 18.228
H 5.77242 10.6276 17.6916
H 4.94982 10.1675 18.8763
Ow 24.5265 13.1568 23.9199
H 25.2601 13.0391 24.5235
H 24.9372 13.2779 23.0638
Ow 14.1221 18.7807 20.5263
H 13.5579 18.6549 19.7633
H 14.8893 19.2398 20.1844
Ow 9.43466 12.5289 16.9409
H 9.10021 11.6468 16.7784
H 9.87693 12.7714 16.1273
Ow 5.69447 15.7778 4.52069
H 5.81988 16.6855 4.24405
H 6.04853 15.2562 3.80035
Ow 18.3179 13.3269 20.8703
H 18.3744 12.5246 21.3892
H 17.9976 13.9877 21.4842
Ow 4.73778 10.3096 5.99462
H 4.50346 10.0066 5.11741
H 5.60661 9.94007 6.15208
Ow 12.5268 6.62578 23.2944
H 11.8677 6.31164 23.9133
H 12.2036 6.34714 22.4376
Ow 4.97275 23.8898 3.66433
H 4.95152 24.2801 2.79058
H 5.20575 22.9739 3.51242
Ow 19.4432 3.90181 19.6771
H 19.2724 4.35491 18.8514
H 20.3515 4.11932 19.8868
Ow 11.2663 22.8711 18.1538
H 12.0981 23.0332 17.7086
H 11.1192 23.6564 18.6809
Ow 0.837718 22.975 19.8353
H 0.0922401 22.3795 19.7586
H 1.12608 23.1159 18.9335
Ow 14.3387 8.60173 2.77653
H 14.7347 8.1326 3.51094
H 13.9787 9.39825 3.16664
Ow 5.75649 25.0695 10.7712
H 6.38879 24.4325 10.4386
H 6.21409 25.5106 11.487
Ow 10.9895 18.5802 10.4827
H 10.9324 17.7325 10.0418
H 10.1525 18.6708 10.9381
Ow 19.7745 10.2191 8.25435
H 20.3853 10.5277 8.9236
H 18.9094 10.3336 8.64784
Ow 22.0296 6.02974 17.9668
H 21.9664 6.52769 17.1518
H 22.5607 6.5792 18.5432
Ow 6.14522 19.1027 13.5962
H 7.00902 19.0782 13.1845
H 5.98978 20.0306 13.7729
Ow 25.3203 20.9833 15.8833
H 25.0838 20.8588 14.9641
H 25.372 20.0966 16.24
Ow 18.7513 24.526 15.9263
H 18.1048 24.9453 15.3585
H 19.0626 25.2295 16.4959
Ow 7.39383 9.62962 5.82846
H 7.10756 8.98938 5.17702
H 8.33773 9.70745 5.6898
Ow 9.60724 13.5984 4.27301
H 8.74629 13.18 4.27238
H 10.0983 13.1358 4.95208
Ow 17.5013 2.42464 2.29647
H 18.1457 1.7928 1.97749
H 16.6699 2.12657 1.92747
Ow 7.12228 0.81251 24.8101
H 6.46998 0.731701 24.1143
H 6.62702 1.12184 25.5686
Ow 16.8486 3.68853 7.1913
H 17.623 3.24787 6.84161
H 16.8516 4.54862 6.77122
Ow 17.2835 19.2931 11.8057
H 17.2369 19.7099 12.6661
H 16.4806 19.5671 11.3624
Ow 2.61322 13.7818 14.3473
H 3.56726 13.7044 14.3404
H 2.39211 13.9426 15.2646
Ow 10.7075 1.17563 8.42465
H 10.2177 1.82278 8.93214
H 10.0353 0.671753 7.96582
Ow 14.9203 2.15113 12.6212
H 15.1867 1.49096 13.2611
H 14.7795 1.65857 11.8126
Ow 20.0553 0.945852 17.9736
H 20.5447 0.568886 18.7048
H 19.6918 1.75979 18.3224
Ow 21.4091 14.1322 17.5836
H 20.8821 14.6576 16.9816
H 21.0461 13.2494 17.5126
Ow 19.6397 4.6664 25.5352
H 19.3203 5.22593 0.608733
H 18.8477 4.29241 25.1491
Ow 1.80939 5.69561 4.53866
H 2.14464 4.80636 4.65306
H 1.23787 5.8356 5.29363
Ow 5.06677 19.3989 8.23745
H 5.3915 18.7796 7.58378
H 5.80747 19.9817 8.40475
Ow 20.6164 2.60434 10.6408
H 20.6578 3.33074 11.2628
H 20.2262 2.98429 9.85367
Ow 19.2712 4.13068 8.55755
H 18.3897 3.97872 8.21698
H 19.8165 4.22844 7.77695
Ow 17.1577 17.5344 16.8484
H 16.5405 17.2265 16.1846
H 17.0475 18.4853 16.8558
Ow 21.783 10.955 25.3309
H 21.178 11.5381 0.154911
H 21.3057 10.1292 25.2504
Ow 11.6434 11.4197 18.3499
H 10.9161 11.5886 17.751
H 11.4718 10.5434 18.6947
Ow 2.22395 1.9611 12.2129
H 1.75418 2.69144 12.6156
H 3.14806 2.1532 12.3721
Ow 4.47305 17.1287 22.9272
H 4.38648 18.0785 22.8455
H 4.7656 16.9911 23.8282
Ow 10.3384 20.5297 23.838
H 10.5121 20.5288 24.7793
H 9.40457 20.7273 23.7665
Ow 14.5316 23.8196 16.0926
H 14.7732 22.9044 16.2351
H 15.3158 24.2189 15.7159
Ow 14.685 20.1157 14.1375
H 14.3775 20.282 15.0285
H 15.6364 20.2058 14.1911
Ow 4.05703 7.09795 3.67904
H 3.8842 8.00986 3.44499
H 3.20064 6.7461 3.92201
Ow 6.84477 7.21406 4.21966
H 6.84987 6.31576 4.55021
H 5.97673 7.32181 3.83093
Ow 15.0105 7.1229 5.16233
H 14.1272 6.84344 4.9214
H 14.8751 7.81339 5.81126
Ow 10.4791 20.8248 0.861312
H 9.74379 20.4043 1.30719
H 10.697 21.5756 1.41357
Ow 4.81451 2.64564 18.0727
H 5.50158 2.18436 18.5538
H 5.21396 2.85933 17.2295
Ow 17.1342 22.9143 2.15479
H 16.5494 22.1931 2.38732
H 17.7462 22.5335 1.52492
Ow 19.6463 15.0264 9.79005
H 20.1172 15.1316 8.96336
H 20.2887 15.2526 10.4626
Ow 7.51534 16.6619 2.34972
H 7.03328 16.8431 1.54285
H 7.81375 17.5208 2.64895
Ow 14.9399 5.37584 14.4971
H 15.6307 4.77775 14.212
H 14.9342 5.29859 15.4512
Ow 20.8561 7.34844 6.97065
H 20.0617 7.86654 6.84104
H 21.3759 7.85767 7.59247
Ow 8.5198 19.8079 2.44811
H 9.09334 19.4892 3.14505
H 7.72566 20.0909 2.90143
Ow 5.38773 1.78892 4.55207
H 5.04272 1.44565 5.37631
H 5.75998 2.63984 4.78357
Ow 17.0035 6.44052 19.0777
H 16.5282 5.9682 18.3941
H 16.4174 7.15487 19.3276
Ow 16.7686 4.38822 10.9115
H 16.788 4.28889 11.8633
H 16.8434 3.49508 10.5754
Ow 10.7164 2.69652 25.0601
H 11.5826 2.50799 24.6989
H 10.8148 3.54697 25.4882
Ow 20.9568 11.6872 5.8486
H 20.9609 11.2454 4.9995
H 20.7424 10.9977 6.47693
Ow 11.1825 12.3017 10.9616
H 11.1408 11.9136 10.0876
H 11.3342 13.2335 10.8034
Ow 11.6218 8.16273 2.40874
H 12.5537 8.21071 2.62206
H 11.5461 7.401 1.83406
Ow 6.6678 12.3623 17.7825
H 6.29146 12.9653 18.4236
H 7.52916 12.7297 17.5842
Ow 13.3271 9.80504 21.1858
H 12.7723 9.56745 20.4428
H 13.492 10.7411 21.0725
Ow 14.6321 16.92 23.8879
H 15.2904 16.6216 24.5155
H 14.2395 17.6898 24.2997
Ow 5.43639 7.76602 8.63738
H 4.88704 7.07015 8.99822
H 6.25627 7.32923 8.40663
Ow 15.1831 11.8757 21.4363
H 15.1557 12.8321 21.4641
H 15.6311 11.6722 20.6153
Ow 0.0979553 5.98266 9.8019
H 1.00585 5.89181 9.51258
H 25.2583 6.26451 9.01958
Ow 9.54687 0.397973 21.7236
H 10.0265 0.328449 20.8982
H 8.73208 0.843168 21.4909
Ow 11.5898 9.1602 23.7039
H 11.5833 9.24397 24.6574
H 11.9507 8.28853 23.542
Ow 14.657 19.557 10.6095
H 14.0146 20.2327 10.8263
H 14.1819 18.7324 10.7123
Ow 3.51964 21.19 16.8803
H 2.76154 21.7736 16.8503
H 4.139 21.5688 16.2565
Ow 10.9448 2.84273 18.9776
H 10.6609 1.93691 19.1006
H 10.3834 3.17744 18.2784
Ow 25.3439 3.5848 19.6515
H 25.1464 2.89665 20.2869
H 24.569 3.62322 19.0908
Ow 18.5246 7.10935 15.8629
H 17.7617 7.59234 16.1805
H 18.411 7.07893 14.9129
Ow 18.1352 7.3197 13.1646
H 18.5802 7.92754 12.5741
H 17.2269 7.62121 13.1795
Ow 6.93476 5.53767 18.3268
H 7.40438 6.31627 18.0277
H 6.23911 5.41412 17.681
Ow 0.934704 20.1582 1.16558
H 0.7767 20.1261 2.10911
H 1.65806 19.5479 1.02249
Ow 10.8543 5.55533 6.87385
H 11.2208 6.42325 7.04307
H 9.93868 5.62461 7.144
Ow 23.4697 9.64829 13.3084
H 24.0405 8.89942 13.4805
H 22.8611 9.66095 14.0472
Ow 0.38137 18.5498 17.0421
H 1.30872 18.6501 17.257
H 0.207535 17.6159 17.1591
Ow 23.8009 7.62044 19.2428
H 24.6651 7.93037 18.9722
H 23.4512 8.32768 19.7848
Ow 12.5376 12.8294 24.3629
H 12.4337 13.6697 24.8094
H 11.6477 12.484 24.2915
Ow 17.7197 18.1235 1.33566
H 17.5396 18.7723 0.655359
H 17.3868 17.3009 0.976851
Ow 24.3786 19.4948 10.5147
H 25.2734 19.6748 10.2264
H 24.1307 18.6986 10.0448
Ow 3.80529 7.88862 12.49
H 3.08762 8.05061 13.1023
H 3.83788 8.67488 11.945
Ow 22.0059 10.2291 3.29505
H 22.5513 10.019 2.53705
H 21.5989 9.39685 3.53593
Ow 18.0867 13.1172 11.1296
H 17.7838 12.4513 10.5123
H 18.5407 13.7603 10.5851
Ow 8.46622 19.9841 18.5988
H 8.17543 20.5484 17.8825
H 7.84927 20.1607 19.3091
Ow 16.31 14.8518 2.80772
H 16.2172 14.9137 1.85705
H 15.4131 14.8938 3.13964
Ow 20.8551 20.5113 3.53843
H 21.5926 20.1658 4.04133
H 20.1097 19.9733 3.80517
Ow 5.46855 23.6038 22.4354
H 4.75601 23.084 22.8074
H 5.24424 24.5087 22.6524
Ow 22.2765 24.1799 10.1023
H 22.4388 23.2776 10.3776
H 22.0613 24.112 9.17211
Ow 22.0982 12.7015 14.1511
H 21.678 13.3352 14.7326
H 22.0847 11.8798 14.6419
Ow 16.4781 9.45785 22.9445
H 16.1618 8.93001 22.2113
H 16.1864 8.98506 23.724
Ow 5.11871 1.76681 9.69722
H 4.1792 1.94383 9.74428
H 5.2218 0.907513 10.1061
Ow 14.2438 5.07493 10.3266
H 13.8227 4.24576 10.1
H 15.1672 4.85115 10.4431
Ow 7.09143 4.44076 1.93774
H 6.99277 4.45205 2.88978
H 6.52083 5.14454 1.62897
Ow 3.42721 5.20366 9.24192
H 4.21848 5.00408 9.74221
H 3.70797 5.175 8.32727
Ow 25.4887 12.5753 9.90576
H 24.8676 12.5827 9.17742
H 25.5233 13.4852 10.2009
Ow 13.6291 17.0962 11.0002
H 13.9103 16.3735 11.5612
H 12.7062 17.2248 11.2191
Ow 22.5637 14.3835 25.6638
H 23.1159 13.9711 24.9995
H 21.8512 13.76 0.169897
Ow 23.7188 13.0573 5.64513
H 23.6026 12.1921 5.2526
H 23.3847 12.963 6.53716
Ow 20.8109 6.94335 21.276
H 20.376 6.96048 20.4235
H 20.9943 6.01714 21.4333
Ow 23.7256 15.628 4.67422
H 23.5062 14.7401 4.95644
H 22.89 16.0061 4.40016
Ow 17.4733 23.2143 12.6782
H 18.4281 23.1873 12.7408
H 17.1965 23.7138 13.4463
Ow 3.93002 12.9152 5.75379
H 3.83902 13.0389 4.80898
H 4.23555 12.0132 5.84946
Ow 20.8617 15.0113 15.0893
H 20.4407 15.8491 15.2821
H 21.7165 15.2493 14.7303
Ow 7.1061 12.3406 5.02868
H 6.79564 11.4389 5.11108
H 6.64506 12.6842 4.26341
Ow 3.87705 5.60989 20.4274
H 3.10112 5.53584 19.8718
H 3.65643 5.11296 21.2152
Ow 18.3832 6.68075 1.5091
H 17.6731 6.415 0.924861
H 18.3637 6.03821 2.21832
Ow 21.6697 7.46477 10.7475
H 21.8703 7.15571 11.6309
H 20.8939 8.0149 10.8561
Ow 6.42641 17.1829 6.8926
H 7.24322 16.722 6.70107
H 6.25549 17.7044 6.10833
Ow 4.99424 12.5007 24.6754
H 4.4407 13.1484 25.1117
H 4.60219 11.6576 24.903
Ow 21.2212 15.4661 7.65365
H 21.8413 14.8409 8.02892
H 21.2846 16.2358 8.2191
Ow 6.5882 23.3998 25.5531
H 7.07686 23.3524 0.740324
H 6.79308 22.5795 25.1044
Ow 11.2999 11.1467 8.52512
H 10.8221 10.32 8.59146
H 11.1475 11.4406 7.62701
Ow 16.4632 16.9839 12.7625
H 15.9213 17.0532 13.5484
H 16.7768 17.8749 12.6078
Ow 4.25681 13.0689 3.01334
H 4.3213 13.4788 2.15075
H 4.35774 12.1325 2.84224
Ow 23.3189 22.4115 17.5574
H 24.0996 22.0407 17.146
H 23.1709 21.8641 18.3285
Ow 0.512246 9.40633 25.5411
H 25.5832 9.0201 24.8706
H 1.22207 8.77373 25.6517
Ow 22.0931 4.52396 21.8377
H 22.9155 5.00459 21.932
H 21.9683 4.09365 22.6836
Ow 1.86095 11.5522 12.84
H 1.996 10.6942 13.2423
H 2.30182 12.1652 13.4284
Ow 2.79426 7.39803 0.433116
H 2.37441 7.43847 1.29238
H 2.46988 6.58515 25.68
Ow 10.2647 21.3601 20.0548
H 10.6206 22.0657 19.5146
H 9.56248 20.983 19.5249
Ow 4.25501 20.2826 20.0312
H 3.37243 20.1771 19.676
H 4.4657 21.2041 19.8808
Ow 17.7147 8.15298 8.89425
H 17.5119 8.97784 9.33553
H 18.0124 8.41389 8.02273
Ow 4.11499 4.99347 6.57482
H 4.95787 4.72507 6.2091
H 3.66346 5.42209 5.84775
Ow 7.49359 3.24867 13.4249
H 7.93019 4.06634 13.186
H 8.10965 2.81019 14.0117
Ow 7.01854 14.6602 24.3929
H 6.56871 15.2164 25.0289
H 6.57283 13.8154 24.4553
Ow 23.9633 19.6989 25.5058
H 24.8635 19.7849 0.184973
H 23.9585 20.1522 24.6628
Ow 15.3217 21.0934 3.83082
H 15.0312 20.3256 3.33862
H 16.0888 20.7907 4.3169
Ow 23.1897 23.684 21.8707
H 22.419 23.1168 21.8927
H 23.0689 24.223 21.089
Ow 0.855092 4.91078 15.1714
H 0.478298 5.74329 14.8864
H 1.70893 5.14564 15.5347
Ow 10.3922 25.1614 5.41491
H 10.576 24.2651 5.69605
H 9.94885 25.5615 6.16303
Ow 15.8557 24.7334 10.993
H 16.4028 24.3135 11.6568
H 15.3754 24.0121 10.5865
Ow 16.2331 1.27029 22.2407
H 16.3156 0.321477 22.1448
H 16.4351 1.61772 21.3719
Ow 16.9731 3.75246 13.6141
H 16.3457 3.09651 13.3102
H 17.829 3.34364 13.4854
Ow 3.18619 2.57482 0.723277