3108
Atoms. Timestep: 0
O 15.6935 4.85515 24.436
H 14.8558 4.4 24.3502
H 16.0317 4.90595 23.542
O 4.56079 8.85503 23.9408
H 4.10872 8.08567 24.2872
H 4.74964 8.6323 23.0293
O 17.4843 32.1447 27.8324
H 17.9389 32.3815 27.024
H 16.7606 0.774627 27.8922
O 6.9246 13.349 31.8201
H 6.07014 13.2501 31.4002
H 7.12928 14.2798 31.7316
O 29.6604 27.8928 2.77635
H 29.2649 27.0298 2.8989
H 29.2941 28.2096 1.95071
O 14.3753 2.24028 5.58007
H 14.6582 2.68077 6.38142
H 15.0075 1.53175 5.45967
O 10.2944 10.1199 8.95225
H 9.80714 10.5921 9.62739
H 11.2101 10.1943 9.22083
O 16.3532 11.6243 3.3099
H 16.2955 11.5097 4.25846
H 15.4595 11.8337 3.03861
O 27.4454 8.1837 14.3867
H 26.8135 8.52984 15.0169
H 28.2928 8.27316 14.8228
O 29.656 11.7117 6.13547
H 30.1633 10.9712 6.46788
H 29.0931 11.3332 5.4602
O 24.5263 18.6616 2.20078
H 24.1293 17.8996 1.77882
H 24.9998 18.3012 2.95053
O 4.63596 1.37434 3.4896
H 3.95358 1.98739 3.21618
H 5.43191 1.90437 3.5317
O 12.5612 13.5865 17.6039
H 11.9078 13.2311 17.0014
H 13.3999 13.4209 17.1733
O 11.8508 4.4323 31.495
H 11.5559 4.5163 32.4018
H 11.6815 3.51709 31.2714
O 24.1328 7.26332 28.453
H 23.6487 7.62094 29.1973
H 24.5662 6.48396 28.8007
O 21.3056 19.2696 11.6827
H 20.6466 19.9583 11.5956
H 21.9754 19.6488 12.2517
O 23.3991 12.9124 8.11045
H 23.4063 13.8406 8.34432
H 22.9504 12.8813 7.26554
O 17.4101 15.3918 6.70865
H 16.9545 14.5877 6.45931
H 18.267 15.3225 6.28779
O 31.4051 15.4064 15.8327
H 31.9915 14.9009 16.3956
H 31.8245 16.2636 15.7575
O 20.3512 25.5902 5.24872
H 19.9369 24.7977 4.90741
H 20.1346 25.5918 6.18109
O 22.0401 14.1209 21.09
H 22.0493 14.4606 21.9848
H 22.43 13.2496 21.16
O 14.9541 29.1604 30.8114
H 14.5058 29.8895 31.2398
H 14.5675 28.3773 31.2034
O 9.79344 16.2278 10.4985
H 9.84489 17.182 10.4439
H 10.373 15.916 9.8035
O 15.7792 2.37093 12.6084
H 15.5565 3.17964 12.1473
H 16.7343 2.38477 12.6696
O 17.2455 10.9333 14.3053
H 16.6868 10.6903 15.0435
H 17.8723 11.5561 14.6735
O 29.9981 16.7812 12.7293
H 29.7658 16.2386 11.9757
H 30.1655 17.6477 12.3586
O 21.291 29.9711 25.0035
H 21.9233 29.4033 25.444
H 21.0163 30.5928 25.6776
O 18.5472 22.9551 30.2802
H 19.1437 22.8495 29.5391
H 18.6372 22.1427 30.7784
O 12.5987 11.89 19.724
H 12.3126 12.4346 20.4573
H 12.4859 12.4465 18.9534
O 12.9045 26.8643 1.50764
H 13.2267 26.8171 32.6013
H 13.6957 26.9283 2.04266
O 18.3997 19.7072 5.37674
H 17.7159 20.3763 5.34664
H 18.7601 19.6923 4.49011
O 14.5767 13.0377 15.7821
H 14.9334 13.91 15.9497
H 15.3152 12.4453 15.9232
O 28.7811 8.46433 3.04985
H 27.9267 8.89559 3.03594
H 28.9535 8.30317 3.9775
O 14.6856 8.59733 14.96
H 14.0962 8.08926 15.5174
H 15.5336 8.16206 15.0478
O 27.2974 30.846 31.1961
H 27.7738 31.4087 30.5857
H 26.6314 31.417 31.579
O 8.54284 4.4707 31.1254
H 8.32551 4.70662 30.2236
H 8.63736 3.51833 31.1082
O 15.2264 27.8113 27.6356
H 14.8411 26.9354 27.6586
H 15.0041 28.1937 28.4845
O 23.3103 13.2212 11.0084
H 23.0361 12.4568 10.5018
H 23.6204 12.8601 11.8389
O 17.8432 27.4368 4.45645
H 18.6646 27.2143 4.01826
H 17.1673 27.2653 3.80075
O 16.9965 15.8096 31.7919
H 17.0466 16.2324 30.9347
H 17.9073 15.6279 32.0235
O 7.26408 25.7275 8.14848
H 6.59298 25.0464 8.19192
H 7.38207 26.0064 9.05651
O 23.4135 25.2164 29.5158
H 22.9549 24.7043 30.1819
H 23.9193 25.8591 30.0132
O 29.195 0.950684 17.0003
H 29.4986 1.832 16.7828
H 29.9975 32.442 17.1408
O 17.8078 14.2967 3.86484
H 17.1212 14.2442 3.20002
H 18.4886 13.6996 3.55441
O 8.53105 25.8167 13.2003
H 8.66316 26.7497 13.3686
H 7.69859 25.7732 12.7299
O 17.6817 27.5901 21.2771
H 16.9115 28.1184 21.0677
H 18.3143 27.8058 20.592
O 8.38614 12.5874 4.22504
H 8.71921 13.4413 4.50093
H 8.64936 11.9896 4.92479
O 8.72337 11.4095 6.88295
H 9.36658 10.8602 7.33099
H 7.87836 11.1163 7.22391
O 25.4484 2.79716 10.7306
H 25.5404 2.54969 11.6506
H 25.4054 1.96409 10.2611
O 30.9645 31.7743 26.9794
H 30.9405 32.0386 26.0597
H 31.3076 30.8809 26.9635
O 12.1233 30.6418 23.7368
H 12.8211 30.988 24.293
H 12.049 31.275 23.0229
O 7.86223 6.60471 15.1426
H 8.15127 6.098 15.9015
H 7.07136 6.15695 14.8422
O 17.6608 17.3937 13.168
H 17.6597 16.7162 12.4918
H 16.8291 17.2762 13.6269
O 15.7675 12.287 6.28708
H 14.8411 12.5011 6.39723
H 15.84 11.3781 6.57835
O 21.9585 3.17425 32.2527
H 22.6656 3.15474 0.90383
H 22.2343 3.83157 31.6139
O 5.08383 13.9214 9.60001
H 4.57755 13.7007 10.3818
H 4.55011 13.605 8.87116
O 28.838 24.5238 27.0554
H 28.6573 24.4054 27.9879
H 29.4575 25.2528 27.0217
O 18.6526 26.0239 28.2093
H 19.2912 26.5825 28.6525
H 18.0346 25.7741 28.8962
O 10.129 10.5096 20.0315
H 11.0161 10.7407 19.7561
H 9.96241 11.0639 20.7939
O 21.1515 18.8333 1.85317
H 20.7303 18.3686 1.13009
H 21.2741 18.166 2.52836
O 22.6105 27.2582 5.14927
H 23.0959 26.7624 4.4899
H 21.693 27.038 4.98794
O 2.28684 26.8099 27.8928
H 2.00153 26.6928 26.9867
H 3.18101 26.4687 27.9089
O 29.1838 14.7861 1.30368
H 28.2506 14.7053 1.50045
H 29.4492 15.6013 1.72944
O 30.4286 24.0491 13.9203
H 31.2469 24.2052 13.4489
H 30.2824 24.8525 14.4198
O 22.4943 15.1712 23.773
H 22.2819 15.9989 24.2042
H 21.8967 14.5353 24.1665
O 24.4708 11.3224 13.1341
H 24.8168 10.821 12.3958
H 24.1436 10.6595 13.7421
O 27.9782 28.4102 32.3797
H 28.064 29.3144 32.0777
H 27.166 28.4024 0.892387
O 5.01348 22.1071 17.6667
H 5.73303 21.6961 18.1459
H 4.22393 21.7019 18.0255
O 17.4793 25.1095 22.7277
H 17.4001 25.9723 22.3208
H 16.7702 25.0811 23.3701
O 2.82099 2.68504 11.5294
H 3.68179 2.45472 11.1798
H 2.36832 1.84697 11.624
O 24.5743 21.3859 8.40874
H 25.4719 21.5541 8.12212
H 24.6688 20.8128 9.16964
O 30.0171 17.9479 21.7292
H 29.6553 17.6046 22.5462
H 30.881 18.2818 21.9709
O 1.91383 9.98112 6.53538
H 2.32237 9.84841 5.67997
H 2.58371 10.4256 7.05489
O 31.1135 23.3793 29.8815
H 30.3147 23.8337 29.6135
H 31.6072 24.0334 30.376
O 20.8885 28.6789 1.81878
H 20.669 27.8258 2.19335
H 21.8321 28.765 1.95449
O 9.55228 25.8357 15.9636
H 9.25059 25.8701 15.0558
H 9.29826 26.6814 16.3331
O 15.0198 4.51209 3.32501
H 14.865 4.8175 4.21887
H 15.6897 5.10346 2.98199
O 20.0368 31.0469 16.0473
H 20.7332 31.4513 16.5648
H 20.4141 30.2228 15.7397
O 16.949 14.5906 28.7136
H 16.7803 13.6614 28.8697
H 16.721 14.7246 27.7936
O 22.0619 4.23768 20.5823
H 21.3974 3.83189 21.139
H 22.0049 5.17195 20.7826
O 7.07279 1.12476 20.8679
H 6.62555 1.05607 21.7114
H 6.88194 2.01307 20.5667
O 4.24063 22.9729 31.7773
H 4.63588 23.7074 31.3077
H 3.47697 23.3502 32.214
O 13.7389 21.6418 14.5808
H 13.0955 21.7594 13.8819
H 13.3564 20.9733 15.1492
O 31.7612 31.9549 3.56716
H 31.6951 0.753786 4.09974
H 32.2447 31.337 4.11549
O 2.50128 13.3203 24.7369
H 3.14844 13.3785 24.034
H 2.63319 12.4501 25.1132
O 18.1712 14.8076 23.7381
H 18.8762 14.532 24.3241
H 18.3252 15.7422 23.6005
O 16.2612 11.0483 17.0015
H 16.2951 11.6031 17.7807
H 15.8822 10.225 17.3093
O 4.4854 26.3804 2.81397
H 4.01409 26.0664 2.04227
H 5.05025 27.0785 2.48264
O 19.7929 27.7487 19.4236
H 19.5514 27.3083 18.6088
H 20.2708 27.0859 19.9222
O 26.8431 7.11564 18.2636
H 26.4839 7.88729 17.8257
H 26.0899 6.71195 18.6947
O 16.8774 6.71884 15.2929
H 17.2702 5.84642 15.2638
H 17.5787 7.28724 15.6113
O 1.36356 17.3439 6.84393
H 2.0715 16.7003 6.81462
H 32.6309 16.9226 6.3845
O 3.81863 16.18 5.81021
H 3.83035 15.5472 5.09216
H 3.78499 17.0332 5.3776
O 31.0593 30.5496 31.4603
H 31.8294 30.2418 31.9384
H 30.7542 29.7818 30.977
O 2.51517 25.0981 6.28722
H 2.07494 25.3558 5.47729
H 1.87356 25.2737 6.97549
O 7.65489 9.47981 15.2404
H 8.02836 9.76787 16.0734
H 7.82125 8.5375 15.216
O 24.5008 10.5859 3.87743
H 24.036 10.7128 3.05033
H 24.9477 11.4181 4.03178
O 19.5252 31.8676 32.5039
H 18.8237 31.266 0.759538
H 19.2117 32.2816 31.6998
O 29.221 13.1357 21.351
H 29.5903 13.8357 20.8128
H 28.5682 13.5725 21.8981
O 8.776 12.552 29.7248
H 9.08598 11.8104 30.2446
H 8.08442 12.9456 30.2568
O 11.1753 18.2894 4.48829
H 11.1151 18.364 5.44067
H 10.9902 17.3678 4.30763
O 12.422 18.8223 20.2842
H 11.5147 19.1255 20.3198
H 12.9316 19.5474 20.6457
O 16.1118 15.36 9.05082
H 16.7917 15.6338 9.66644
H 16.479 15.5501 8.18755
O 8.54565 9.07848 26.9987
H 8.2726 8.85187 26.1097
H 7.74398 9.0194 27.5184
O 3.80197 11.3107 19.9996
H 3.20952 11.8562 19.4822
H 3.50966 11.4293 20.9033
O 20.0126 22.0853 11.7279
H 20.653 22.7203 11.407
H 20.0831 22.1342 12.6812
O 29.8354 8.43291 15.9947
H 30.2196 9.24653 15.6682
H 30.5325 7.78369 15.9008
O 32.3076 21.0675 26.7529
H 32.3278 20.1163 26.8581
H 0.806777 21.2305 25.9487
O 17.9888 19.1154 20.6816
H 17.3199 18.8248 20.0617
H 18.0865 18.383 21.2901
O 20.598 29.4184 22.3553
H 20.6492 30.1988 21.8035
H 20.931 29.7037 23.2061
O 7.32634 32.0888 0.70168
H 7.8469 32.5531 32.0399
H 7.58131 32.4847 1.53504
O 1.4688 2.08141 25.729
H 1.439 1.47287 24.9907
H 1.75536 1.54666 26.4694
O 31.3239 22.1827 6.54003
H 30.659 21.6871 6.06201
H 31.7207 21.5433 7.13155
O 27.6974 28.0539 19.1939
H 28.4355 27.8505 19.7684
H 27.2116 28.7348 19.6592
O 32.5516 16.2434 13.455
H 32.5517 15.7191 14.2559
H 31.6307 16.2888 13.198
O 32.5191 24.3775 12.2707
H 1.07857 25.1409 12.436
H 31.9821 24.6285 11.5191
O 30.2517 15.6297 20.0695
H 30.9872 16.1183 19.7
H 29.8059 16.2592 20.6362
O 30.9997 10.4954 14.5653
H 31.1554 10.8386 13.6855
H 31.8734 10.4044 14.9456
O 23.1898 22.5032 18.863
H 23.6058 21.8063 18.3555
H 22.7869 22.0521 19.6049
O 24.2465 25.3785 3.79476
H 25.0261 25.1992 4.32054
H 23.7981 24.5349 3.735
O 18.1721 3.96363 1.8707
H 18.888 3.32957 1.83003
H 17.8549 4.02555 0.969708
O 14.7927 5.93799 31.553
H 14.4737 6.4099 30.7837
H 15.7461 5.96401 31.4723
O 12.4676 28.0645 22.8918
H 13.3576 28.0525 22.5398
H 12.1873 28.9755 22.8047
O 19.7959 11.3599 11.2393
H 20.5838 11.0662 10.7819
H 20.0418 12.2006 11.6253
O 20.0264 20.5626 23.1783
H 20.6224 20.7421 22.451
H 19.3285 20.0337 22.7918
O 10.9609 2.554 15.5818
H 11.048 3.24116 14.9211
H 11.698 1.96647 15.4155
O 1.81136 12.898 4.9487
H 1.73503 12.5675 4.05359
H 0.923825 12.8399 5.30245
O 1.25042 17.4613 16.5123
H 2.01434 16.9194 16.3151
H 1.34711 18.2273 15.9465
O 9.07972 1.15106 9.83315
H 9.87404 0.953012 9.33711
H 8.71258 32.2879 10.0505
O 16.3167 0.928017 19.1585
H 17.2482 0.871606 18.9457
H 16.217 32.3841 19.9442
O 25.0245 7.07547 11.1105
H 24.5923 6.29817 10.7566
H 25.582 6.74112 11.8132
O 9.34912 28.2711 28.3927
H 8.80781 28.5619 29.1267
H 9.87779 29.0363 28.1665
O 9.858 14.6197 5.62829
H 8.98277 14.9293 5.86142
H 10.1175 15.1685 4.88822
O 25.9534 14.6958 15.1841
H 25.9564 13.7392 15.148
H 25.377 14.9612 14.4675
O 25.7854 3.05754 20.5908
H 25.8717 2.13269 20.3596
H 25.155 3.06707 21.311
O 29.362 22.1851 9.25899
H 28.5272 21.7795 9.02473
H 29.6596 21.6957 10.0259
O 6.7133 24.3968 20.0712
H 6.39929 25.1281 19.5395
H 7.03484 23.7581 19.4349
O 18.7264 29.9501 28.4968
H 18.5338 29.1907 27.9468
H 18.178 30.6493 28.141
O 31.4713 10.3864 18.5853
H 30.8536 10.9186 18.084
H 31.337 10.6551 19.4942
O 6.96994 24.9844 3.74767
H 6.14249 25.355 3.44072
H 6.87091 24.0405 3.62342
O 21.6586 13.0161 27.3727
H 22.4927 12.8249 26.9438
H 21.3096 12.1576 27.6124
O 29.7094 31.212 1.81496
H 30.3841 31.32 2.48532
H 30.1975 31.0973 0.999554
O 17.905 4.00848 15.1524
H 17.9473 4.10321 16.104
H 17.2634 3.31284 15.0088
O 24.5138 13.4625 22.9815
H 23.9161 14.1244 23.3294
H 23.9748 12.6767 22.8904
O 18.6686 20.7565 15.3552
H 19.5117 20.8854 14.9207
H 18.0185 20.9535 14.6808
O 30.7114 18.8902 30.9898
H 29.9 19.3361 31.2326
H 30.9548 18.3928 31.7706
O 17.8881 30.1247 18.1962
H 18.4465 30.8685 17.9701
H 18.4552 29.5444 18.704
O 20.6673 31.3928 27.3025
H 20.9708 32.1912 27.7347
H 19.8838 31.1388 27.7902
O 17.9342 29.19 30.9302
H 16.9945 29.0396 30.8273
H 18.2223 29.5041 30.0731
O 27.0571 32.1689 25.0444
H 27.6178 0.864096 24.6877
H 27.3396 31.3726 24.5946
O 1.75533 8.0444 24.2642
H 2.01373 7.47582 23.5388
H 0.941615 7.66103 24.5915
O 11.7455 11.8692 3.03694
H 12.1813 11.0193 2.97378
H 11.6051 11.9978 3.97501
O 27.4955 13.4139 7.12952
H 28.2861 12.935 6.88071
H 26.9466 13.3947 6.3456
O 23.606 18.6147 24.2289
H 23.773 18.318 23.3344
H 22.8256 18.1315 24.5003
O 13.2823 19.2664 11.3015
H 14.1694 19.6233 11.345
H 12.8042 19.8792 10.7427
O 30.0919 12.1196 12.385
H 29.3425 11.7283 12.834
H 30.0867 11.7191 11.5156
O 14.3108 21.6505 8.54738
H 14.2867 22.4924 8.09254
H 13.4097 21.5086 8.83749
O 25.7234 26.024 1.37406
H 25.7207 25.1171 1.06803
H 25.043 26.0524 2.04673
O 22.5598 1.47188 10.7367
H 22.5748 1.31827 9.79202
H 22.2307 2.36595 10.8293
O 13.0157 7.39525 10.9808
H 13.5399 6.99554 11.6748
H 13.5143 8.1693 10.719
O 29.1249 20.8482 30.0827
H 29.6972 21.6155 30.0873
H 28.2633 21.19 30.3213
O 15.1832 5.91163 17.4459
H 15.7453 6.05816 16.6851
H 14.2953 6.05937 17.1202
O 15.1883 18.4166 16.5398
H 14.3419 18.8572 16.4631
H 14.9849 17.4868 16.4381
O 21.4945 26.0938 31.8682
H 21.1342 25.213 31.9714
H 21.5903 26.4203 0.769148
O 15.4798 2.17179 15.2786
H 15.5586 2.13657 14.3253
H 16.2282 1.669 15.6
O 11.605 21.591 30.6906
H 12.3898 21.3492 31.1823
H 11.9193 21.7523 29.801
O 5.75731 27.4402 26.2277
H 5.0357 27.4441 25.5989
H 5.52365 26.7577 26.8569
O 0.907979 15.7693 9.73503
H 32.4479 16.6069 9.64155
H 32.3298 15.1367 9.3004
O 22.5306 3.93715 27.4935
H 22.221 4.04545 28.3927
H 21.8278 3.45879 27.0537
O 10.8366 16.3079 23.0849
H 9.95366 16.5536 23.3611
H 10.9413 15.4066 23.3896
O 2.80541 11.9407 17.3631
H 2.27413 11.231 17.0021
H 2.33668 12.739 17.1198
O 27.4311 8.71583 20.5266
H 26.9739 9.54886 20.6416
H 26.885 8.22505 19.9125
O 13.2886 1.63799 18.2223
H 13.5777 0.796985 17.8682
H 12.6949 1.98691 17.5575
O 9.26028 29.8752 0.773641
H 9.10285 29.4731 1.62791
H 8.8725 30.7475 0.843847
O 24.9541 19.7824 10.5466
H 24.6437 19.9711 11.4322
H 24.2956 19.1909 10.1824
O 11.1252 26.4127 24.6113
H 11.5551 26.7921 23.8448
H 10.7305 25.6025 24.2886
O 22.4174 31.6322 31.5827
H 22.3623 32.2782 30.8785
H 21.7713 31.923 32.2263
O 24.5176 32.1684 20.4997
H 23.5726 32.0319 20.4311
H 24.7114 32.0427 21.4286
O 12.6556 30.5685 4.43459
H 13.478 30.3502 3.99615
H 12.8987 30.6949 5.35172
O 22.6316 25.311 18.5143
H 23.1753 25.698 17.8282
H 22.7365 24.3665 18.3995
O 14.0365 16.0677 3.73863
H 14.1532 16.99 3.51068
H 14.6621 15.6022 3.18351
O 4.31983 27.3146 21.8553
H 5.24383 27.5275 21.7244
H 4.19496 27.3605 22.8032
O 23.7934 26.3762 16.2603
H 23.1462 26.2716 15.5629
H 24.3815 27.0608 15.9412
O 20.9068 7.86244 10.2573
H 20.7009 8.23992 11.1125
H 20.0655 7.55117 9.92346
O 6.89273 19.9272 1.89598
H 6.85873 19.4534 1.06499
H 7.58262 19.4889 2.39413
O 1.26613 29.5204 24.5759
H 32.6509 29.0857 23.9788
H 1.36553 30.4023 24.2173
O 19.6636 5.0035 10.417
H 19.669 4.35287 9.71491
H 19.4253 5.82276 9.98308
O 17.4755 22.5308 5.13428
H 17.6464 22.6514 6.06834
H 18.2195 22.9465 4.69854
O 7.05786 22.4213 24.9283
H 6.75045 22.6205 25.8127
H 7.92381 22.0342 25.0568
O 32.3688 25.272 4.31241
H 31.6143 25.5615 4.82542
H 31.9984 25.0022 3.47209
O 29.8717 14.712 24.7272
H 30.6098 14.5041 24.1543
H 29.7833 15.6633 24.669
O 4.33398 31.5851 30.0234
H 4.34106 30.8665 29.3911
H 5.16575 32.0373 29.8821
O 31.662 6.92969 26.1906
H 31.8654 6.00164 26.0743
H 32.4805 7.31799 26.4995
O 4.51639 20.7727 14.902
H 4.39115 21.2892 15.6981
H 4.96456 19.9804 15.1979
O 25.315 0.68779 8.94477
H 25.1875 1.35769 8.27303
H 25.9881 32.1047 8.58373
O 28.3523 4.86974 23.918
H 28.5837 5.29608 24.7432
H 29.1933 4.64495 23.5199
O 26.9485 31.435 2.78083
H 26.4543 31.7537 2.02554
H 27.7877 31.1532 2.41693
O 29.6 16.799 3.14277
H 29.8755 16.7049 4.05463
H 28.6546 16.9406 3.19107
O 29.1709 20.3662 24.4338
H 28.233 20.4169 24.2494
H 29.2693 20.7782 25.2922
O 6.23642 19.585 28.9895
H 7.0407 19.3462 28.5286
H 6.26631 20.5401 29.0453
O 14.0248 23.9605 4.34212
H 13.4032 23.2336 4.30388
H 14.527 23.8898 3.53033
O 31.7417 17.6793 18.7254
H 30.8309 17.8962 18.5263
H 32.148 17.541 17.8698
O 20.0704 18.2498 13.8907
H 19.1398 18.2011 13.6723
H 20.4846 18.5964 13.1003
O 9.76083 6.28027 27.136
H 9.4897 7.19707 27.183
H 10.2788 6.22404 26.3331
O 28.7079 22.1276 12.6169
H 28.196 21.6771 13.2886
H 29.2319 22.7651 13.1018
O 4.10654 16.019 1.10883
H 3.76149 15.2832 1.61456
H 4.99476 16.1443 1.44291
O 4.07781 31.9301 9.66227
H 3.68135 31.6791 10.4966
H 3.33673 32.1771 9.10907
O 9.41274 14.1853 24.1149
H 9.43124 14.1957 25.0719
H 9.78187 13.3348 23.877
O 10.2411 4.84803 9.995
H 10.8349 4.20086 10.3755
H 10.3929 5.64287 10.5063
O 32.3136 6.65137 11.4465
H 32.4239 7.37034 10.8243
H 1.14386 6.62625 11.9329
O 13.5557 31.5276 32.1927
H 13.1317 30.735 32.5217
H 12.8335 32.078 31.8898
O 16.8855 6.30649 2.40976
H 17.7096 6.05235 1.99443
H 16.5873 7.06465 1.90725
O 2.377 31.2192 14.947
H 3.08768 30.6122 15.1537
H 1.69103 31.0105 15.5811
O 28.9411 1.98748 23.5882
H 28.7971 2.71514 24.1932
H 28.4881 2.24867 22.7865
O 0.979405 24.724 21.2082
H 1.16027 24.1973 21.9868
H 1.81605 24.7624 20.7448
O 16.6107 30.1602 7.78084
H 16.4902 30.6591 6.97282
H 17.4503 29.7153 7.66521
O 10.3549 8.77437 1.35658
H 9.6238 8.88471 1.96452
H 10.3779 9.59121 0.858106
O 5.31116 12.3445 15.8719
H 4.73732 12.2914 16.6362
H 6.18913 12.1881 16.2197
O 23.5079 25.0946 22.9918
H 24.0604 24.7714 23.7035
H 22.8125 24.4416 22.9124
O 12.8865 18.5308 2.32589
H 12.4813 18.3134 3.16538
H 13.5299 19.2071 2.53793
O 32.1202 28.9446 26.847
H 32.0164 27.9934 26.8726
H 32.5443 29.1172 26.0064
O 24.6145 28.1637 19.4603
H 23.8582 28.0667 20.0389
H 24.9084 27.2675 19.2972
O 4.78903 8.71958 16.1627
H 5.70572 8.8096 15.9023
H 4.73286 9.17292 17.0039
O 32.0553 6.84157 16.6162
H 32.491 6.39586 15.8898
H 32.5253 6.54572 17.3958
O 26.2283 3.32851 25.047
H 26.8857 3.84732 24.5835
H 25.5663 3.13211 24.3841
O 29.679 19.8262 11.5254
H 28.958 19.6589 10.9184
H 29.3736 20.5549 12.0657
O 10.4788 8.13063 14.5635
H 10.6672 8.20663 15.4989
H 10.5215 7.19107 14.3856
O 31.0892 32.0587 20.0736
H 31.261 0.929273 20.4474
H 30.2094 31.8362 20.3779
O 18.1485 18.5423 9.28424
H 19.0076 18.4285 8.87778
H 18.1812 19.416 9.67378
O 10.1557 5.62639 2.74201
H 10.2703 4.71274 2.48058
H 10.9031 6.08228 2.35491
O 2.03367 5.82086 22.1079
H 1.81355 5.85785 21.1771
H 2.47305 4.97753 22.2173
O 5.83925 21.9116 6.00323
H 6.53368 21.7428 6.64002
H 5.1259 21.3301 6.26629
O 4.49497 12.9511 30.4877
H 4.51157 12.7994 29.5427
H 3.58539 12.7927 30.7402
O 28.185 6.15083 31.7125
H 27.9601 5.81903 32.5818
H 27.6624 5.62083 31.1107
O 8.16808 16.2007 26.0976
H 7.34014 16.6025 26.361
H 8.46468 16.7269 25.3551
O 10.5391 31.8884 26.6036
H 10.3152 31.1769 26.0038
H 11.473 32.0398 26.4584
O 4.59554 24.598 21.7108
H 4.44096 25.5347 21.8323
H 5.45717 24.5486 21.2968
O 3.46608 22.6555 3.15045
H 2.98672 22.5512 3.97238
H 4.38106 22.7472 3.41623
O 8.5816 1.37187 2.77537
H 8.92918 32.5746 3.18731
H 8.30382 1.92173 3.50798
O 30.9343 13.7428 9.12162
H 31.0319 12.7942 9.20479
H 30.2352 13.9669 9.73589
O 3.398 24.3806 19.3626
H 3.78086 24.3191 20.2378
H 3.91637 23.7766 18.8309
O 24.2321 20.2826 17.5281
H 23.832 19.791 16.8108
H 24.997 20.702 17.1342
O 1.24361 9.56414 16.5727
H 0.916108 8.67074 16.6768
H 0.718416 10.0846 17.1806
O 2.39118 29.2763 32.3611
H 1.52694 29.0761 0.726883
H 2.67362 30.0578 0.842542
O 29.1064 10.421 30.2053
H 28.5592 10.4788 29.4221
H 28.4894 10.2507 30.9171
O 27.4756 6.32846 28.2521
H 26.8515 5.75016 28.6906
H 27.3722 7.17169 28.6931
O 19.8655 13.8894 19.725
H 20.7058 14.0762 20.1436
H 20.0369 13.9877 18.7884
O 9.32627 13.1883 27.0367
H 8.90916 12.8886 27.8445
H 9.76321 12.4106 26.6895
O 28.1927 15.1317 17.629
H 28.8359 14.9006 18.2993
H 28.2045 16.0885 17.6049
O 4.98253 22.7671 10.9604
H 5.86514 22.4732 10.7349
H 5.06972 23.1361 11.8393
O 26.7984 11.7323 15.0792
H 26.5885 10.8931 15.489
H 26.6821 11.5775 14.1418
O 14.1504 5.23435 5.80407
H 13.942 6.13444 6.05439
H 14.6019 4.8717 6.56621
O 12.542 23.9907 21.968
H 11.7403 24.0042 22.4909
H 12.9305 23.1343 22.1463
O 20.6496 12.0359 31.0556
H 20.1298 11.4285 30.5292
H 20.8696 11.5416 31.8452
O 3.55564 19.8246 9.30119
H 4.46944 19.7206 9.03588
H 3.07803 19.9344 8.47896
O 6.1614 5.38249 8.50295
H 5.25496 5.11145 8.64835
H 6.11475 5.99009 7.7648
O 3.71107 30.4801 12.1911
H 3.42755 30.5605 13.1018
H 4.65653 30.6267 12.2203
O 3.66871 27.9978 18.9465
H 3.99048 27.7501 19.8133
H 4.1466 28.7992 18.7331
O 14.2539 16.1338 6.50915
H 14.0299 15.923 5.60271
H 14.1556 15.3059 6.97939
O 31.018 7.91604 1.63981
H 31.0025 7.36012 0.860746
H 30.0955 8.07932 1.83647
O 8.13452 12.8811 17.9317
H 8.82706 12.2548 17.721
H 8.55248 13.5134 18.5163
O 3.72756 10.9065 14.2758
H 4.37371 11.4354 14.7438
H 3.43809 10.258 14.9176
O 2.27805 2.36942 6.66306
H 2.87717 1.66239 6.42348
H 1.75028 2.00613 7.3742
O 4.24509 16.1104 12.7048
H 3.69183 16.4745 13.3958
H 4.73107 16.862 12.3654
O 15.6671 29.7336 24.778
H 15.6092 29.4015 23.8822
H 15.6677 30.6859 24.6814
O 15.1167 31.5296 17.2664
H 15.6209 31.9336 17.9726
H 15.6289 30.7611 17.015
O 7.03046 18.5672 31.537
H 7.96996 18.7262 31.628
H 6.81099 18.9141 30.6723
O 22.4268 18.7731 30.6297
H 22.1975 19.6996 30.7024
H 22.0782 18.5056 29.7794
O 4.65536 28.7797 9.74247
H 4.00229 29.3629 10.1292
H 4.28804 27.9025 9.85109
O 32.4694 20.7289 13.0281
H 32.2453 21.4405 13.6279
H 32.5168 21.1461 12.1679
O 30.8313 6.44754 31.4166
H 31.2254 5.70057 31.8671
H 29.8926 6.35961 31.5821
O 20.4351 23.7621 32.2079
H 19.9834 23.8489 1.05356
H 19.7365 23.5928 31.5758
O 4.02148 1.61892 16.2455
H 4.17256 1.00037 16.9602
H 3.29681 1.23918 15.7486
O 26.4336 28.5836 2.71861
H 26.5771 28.0753 3.51694
H 26.7483 29.4617 2.93338
O 19.0609 3.4556 29.6339
H 18.6756 4.12645 30.1975
H 19.0225 3.83042 28.754
O 26.9548 19.8923 7.06129
H 26.6286 19.0244 6.82347
H 26.4329 20.4976 6.53449
O 12.4329 21.6682 4.28799
H 11.5469 21.3216 4.39297
H 12.9412 21.2403 4.97702
O 26.463 16.5856 12.7351
H 26.4455 17.2237 13.4483
H 26.765 17.0831 11.9752
O 1.09044 13.8029 12.1068
H 0.847706 14.5657 12.6316
H 32.4552 13.7979 11.3853
O 15.684 1.77577 31.7688
H 16.4884 1.64545 31.2667
H 15.079 1.1169 31.4281
O 5.2626 26.7244 12.6
H 4.31259 26.7586 12.488
H 5.43783 27.3038 13.3415
O 9.48721 19.0395 10.2603
H 10.2083 19.6667 10.2073
H 9.01708 19.2811 11.0583
O 25.9235 14.6066 20.7344
H 25.7193 14.0219 21.4643
H 26.6828 14.2058 20.3111
O 29.7945 10.6272 24.3851
H 29.7153 9.91724 23.748
H 29.0358 11.1861 24.2172
O 13.7443 9.41378 22.2234
H 14.0242 8.66484 22.7497
H 13.5341 10.0926 22.8646
O 1.61169 18.4618 11.938
H 1.36591 17.6683 12.4135
H 1.05285 19.1457 12.3072
O 6.21597 9.87362 28.7427
H 5.66842 9.17668 28.3812
H 5.82752 10.682 28.4081
O 14.6501 9.41548 9.84443
H 15.2748 9.51573 10.5627
H 14.1064 10.2021 9.88768
O 9.77237 6.16324 12.4889
H 10.4253 5.744 13.0495
H 8.93204 5.8504 12.8239
O 29.945 5.98374 4.02159
H 30.418 6.56237 3.42353
H 29.8012 6.51426 4.80523
O 26.6655 19.9002 23.255
H 27.0865 19.5124 22.4878
H 25.8543 20.28 22.9174
O 3.26183 11.0936 22.8144
H 2.35444 10.9869 23.0999
H 3.72163 10.3432 23.1908
O 8.8236 5.33215 18.0305
H 9.19431 6.01674 18.5874
H 7.90812 5.27054 18.3032
O 20.7041 14.5696 16.9929
H 21.3599 14.2049 16.3987
H 21.0918 15.3868 17.306
O 28.5395 24.5549 21.901
H 28.0443 24.7449 22.6978
H 29.1792 23.8947 22.1677
O 22.1329 4.74536 23.4702
H 21.5734 5.1102 24.1558
H 22.4104 5.50462 22.9576
O 12.6625 26.4221 14.2516
H 13.0732 25.6771 13.8128
H 13.2532 26.6296 14.9757
O 1.8915 8.34849 1.76888
H 0.94454 8.2098 1.75278
H 2.1011 8.67528 0.893952
O 23.5767 8.44099 18.7504
H 23.3857 9.20277 19.2976
H 24.216 8.75799 18.1124
O 7.84218 3.24349 11.1693
H 8.15318 4.04064 10.7403
H 8.4722 2.57065 10.9112
O 9.64967 31.4046 4.35212
H 9.32345 30.9803 5.14574
H 10.5445 31.0786 4.25625
O 31.0367 13.9202 26.9971
H 30.8402 14.2059 26.1049
H 30.8073 14.6705 27.5454
O 22.3906 13.9812 30.8326
H 21.6877 13.3494 30.6813
H 23.0539 13.7637 30.1776
O 13.9195 27.7438 12.0885
H 13.3738 27.4699 12.8257
H 13.5658 28.5952 11.8314
O 0.966645 27.8449 18.6023
H 1.91677 27.7291 18.6123
H 32.6494 27.22 17.9473
O 20.7057 6.82814 28.4227
H 20.3096 7.28003 29.1677
H 19.971 6.40004 27.9833
O 2.92884 9.41588 31.4105
H 3.47925 8.75641 30.9882
H 2.07517 9.32251 30.9877
O 11.1026 5.9865 23.8323
H 11.6547 6.15209 23.0681
H 10.2083 6.10664 23.5128
O 1.37529 4.17484 4.69947
H 1.51792 3.56098 5.41993
H 1.04921 4.96936 5.12215
O 28.2078 8.92263 9.8761
H 28.019 8.00197 10.0577
H 29.1616 8.96271 9.8058
O 11.6262 29.7855 28.1386
H 12.0876 30.2892 28.8091
H 11.2058 30.4466 27.5887
O 29.5374 30.8601 14.7118
H 29.2235 31.7564 14.8317
H 29.9289 30.8578 13.8384
O 2.26744 25.6049 17.1486
H 2.7169 26.1901 16.5388
H 2.79556 25.6378 17.9462
O 19.087 5.78835 13.2154
H 19.1844 5.31939 12.3867
H 18.7218 5.13944 13.8169
O 1.40105 12.2592 2.28784
H 1.13281 13.1183 1.96195
H 0.694255 11.6706 2.02282
O 16.466 24.8325 13.5227
H 15.6564 24.5615 13.0899
H 16.4771 25.7857 13.4358
O 3.06284 15.2517 26.2821
H 2.99648 14.4164 25.8195
H 2.43122 15.1806 26.9978
O 27.569 6.36964 9.57262
H 27.7083 5.91138 8.74387
H 26.6225 6.33347 9.71075
O 31.7958 10.278 30.7183
H 32.0483 11.1796 30.5196
H 30.9135 10.1908 30.3575
O 24.222 21.9774 28.4195
H 23.7843 21.4385 27.7607
H 25.0639 21.5449 28.5627
O 11.1313 25.3045 19.9552
H 10.3625 25.6207 20.4298
H 11.643 24.8342 20.6134
O 30.9498 1.90581 5.47584
H 30.598 2.42314 4.75136
H 30.2279 1.33268 5.73412
O 3.64555 20.434 6.60084
H 3.65846 19.8002 5.88361
H 2.90839 21.0102 6.39873
O 8.433 29.5727 6.16552
H 7.72429 28.9632 6.37162
H 8.7534 29.8655 7.01865
O 12.8777 5.96605 21.3693
H 12.8702 6.64058 20.6902
H 13.7597 5.59608 21.3303
O 13.9974 14.1851 29.0484
H 14.0388 13.6179 29.8184
H 14.7024 13.8721 28.4816
O 27.4056 24.2588 11.3509
H 27.8374 23.5821 11.8723
H 27.8134 24.1933 10.4874
O 24.9983 10.9104 6.8665
H 25.0829 11.1768 5.95101
H 24.8054 11.7221 7.33577
O 19.6556 25.7396 7.99706
H 19.206 26.4794 8.40544
H 20.4161 25.5823 8.55675
O 31.8085 21.1642 20.1747
H 31.2959 21.1108 19.3681
H 31.1891 21.481 20.8322
O 31.3493 28.1034 11.3803
H 31.2225 28.1462 10.4325
H 32.2424 27.7764 11.4884
O 1.41731 8.51341 27.4726
H 32.5963 9.00661 27.377
H 1.33934 8.08381 28.3244
O 16.3541 21.6325 18.9054
H 16.3243 22.1847 18.1241
H 16.97 20.9345 18.6826
O 16.7297 21.1502 2.70502
H 17.6023 20.7931 2.87005
H 16.7021 21.9609 3.21317
O 6.31476 18.6891 8.96663
H 7.16476 19.012 8.66748
H 6.2287 17.827 8.55963
O 21.1757 27.3962 11.778
H 20.3311 27.6997 12.111
H 21.4604 26.7371 12.4111
O 25.9537 10.7306 21.2088
H 25.0303 10.9824 21.1976
H 26.096 10.3792 22.0877
O 31.1319 26.306 27.4936
H 31.8105 25.9754 26.905
H 31.4932 26.1801 28.371
O 31.8192 2.30414 21.5724
H 32.1334 2.74003 20.7802
H 32.6018 1.90598 21.9536
O 1.69541 21.2832 24.2001
H 1.43853 20.4106 23.9019
H 2.56784 21.4163 23.8294
O 19.6054 1.52757 2.91837
H 20.2289 1.14658 3.53661
H 19.567 0.89857 2.19787
O 26.7149 13.1918 12.0706
H 26.8142 12.6745 11.2713
H 25.9684 12.7966 12.5209
O 4.82418 4.03732 16.9506
H 4.26528 3.27063 17.0773
H 4.21332 4.77126 16.8842
O 13.0132 30.1461 11.0518
H 12.9492 31.0312 11.4106
H 12.1349 29.7804 11.1569
O 15.3436 15.1468 21.2846
H 15.4271 15.6447 22.0978
H 16.15 15.3346 20.8043
O 13.9976 12.7064 1.7496
H 13.1863 12.4798 2.20429
H 13.8512 12.4293 0.845164
O 27.4141 12.6337 19.4646
H 26.8224 11.9568 19.7931
H 28.1502 12.6265 20.0764
O 8.61002 5.50998 22.4826
H 8.33882 6.27165 21.9702
H 7.99191 5.47955 23.2128
O 23.3564 4.09104 6.87339
H 24.1145 3.50896 6.82148
H 22.899 3.9641 6.04218
O 30.1595 22.2644 22.3701
H 30.8219 22.6879 22.916
H 29.7765 21.5931 22.9348
O 18.8135 9.81684 7.78301
H 18.5157 10.4212 8.46292
H 18.8705 8.96903 8.2237
O 31.3274 13.7469 6.41244
H 30.8068 12.9579 6.262
H 31.4268 13.7912 7.36343
O 8.51956 24.4121 6.03555
H 8.13127 24.7793 5.24146
H 8.16473 24.9469 6.74568
O 10.6265 20.1059 23.8585
H 11.4948 19.703 23.8496
H 10.6364 20.6803 24.6241
O 19.5991 16.8613 32.53
H 19.9814 16.0464 32.2043
H 19.482 16.7133 1.47463
O 18.6683 29.0407 11.831
H 18.7973 29.6002 12.5968
H 17.8622 28.5597 12.0182
O 3.4492 15.1442 22.127
H 4.39015 15.2316 22.2793
H 3.04367 15.6307 22.8446
O 5.89205 3.77324 21.5479
H 6.01099 4.48847 22.1728
H 5.05806 3.37418 21.7958
O 15.8094 14.8161 2.03791
H 15.1474 14.242 1.65278
H 16.0996 15.3685 1.31206
O 1.96684 0.994723 30.8863
H 2.50139 32.2619 30.566
H 1.1225 0.882185 30.4497
O 8.80371 17.815 24.0217
H 9.54917 18.4145 23.9881
H 8.04075 18.3719 23.8667
O 22.2329 3.38328 4.19315
H 21.8798 3.95505 3.51151
H 21.7185 2.57921 4.12219
O 25.5914 17.9458 18.3373
H 26.5251 18.1368 18.4266
H 25.1787 18.8044 18.2437
O 13.0522 0.875392 14.6031
H 12.9741 31.9379 14.8103
H 13.7427 1.19354 15.1847
O 11.5883 3.95517 17.8289
H 10.9903 4.66667 18.058
H 11.2993 3.66843 16.9626
O 27.5115 24.3603 24.5869
H 27.0146 23.5422 24.5872
H 27.9684 24.3639 25.428
O 16.5367 23.4407 16.7612
H 16.8161 24.2958 16.4341
H 15.6727 23.3055 16.372
O 17.3517 8.67224 22.6044
H 17.087 9.5147 22.9738
H 18.1711 8.85803 22.1458
O 16.0146 6.71092 8.2375
H 16.1778 7.50308 7.72555
H 15.1844 6.87983 8.68294
O 4.80029 29.7098 27.6731
H 5.29189 29.0287 27.2141
H 3.96899 29.2936 27.9009
O 21.2233 26.6509 26.3889
H 22.0543 27.0654 26.1567
H 21.0516 26.9425 27.2843
O 3.7047 16.5864 30.3534
H 3.74768 17.5379 30.4488
H 3.69502 16.2554 31.2515
O 1.48916 7.15204 6.68599
H 2.40512 6.98575 6.46329
H 1.39382 8.10192 6.6161
O 17.7372 12.9013 21.8846
H 17.6416 13.7494 22.3179
H 18.4957 12.4995 22.3081
O 29.2167 8.01297 5.88827
H 28.3683 8.43506 6.02338
H 29.8542 8.64193 6.2263
O 3.32113 6.15915 0.706824
H 2.57965 6.67754 1.01939
H 3.0263 5.25129 0.778172
O 23.1147 17.1104 6.98476
H 23.1314 17.2802 7.92664
H 23.1426 17.9792 6.58378
O 17.4053 25.9603 15.7868
H 16.9928 26.824 15.795
H 17.4276 25.7137 14.8622
O 16.6709 21.9745 13.6103
H 15.8137 21.9572 14.036
H 16.8181 22.8977 13.4046
O 5.90633 15.6778 23.5289
H 6.44639 15.3671 22.8023
H 5.72362 14.8925 24.045
O 11.3614 19.2278 7.2085
H 11.0787 20.0158 7.67252
H 11.8734 18.74 7.85368
O 16.7312 28.5516 16.495
H 17.0664 28.9112 15.6736
H 17.0039 29.1818 17.1618
O 19.6007 7.73326 31.2134
H 20.4416 7.38301 31.5073
H 19.0021 6.98752 31.2558
O 4.45929 7.23167 21.6816
H 4.32753 7.33409 20.7391
H 3.83821 6.54997 21.9381
O 1.00554 4.6857 25.0257
H 1.73416 5.27248 24.8231
H 1.42242 3.85293 25.2469
O 9.87595 19.9778 20.7801
H 9.78343 20.1651 21.7142
H 9.74532 20.8237 20.3517
O 6.05976 15.0659 16.0876
H 6.16852 14.1735 15.7588
H 5.15067 15.287 15.8854
O 22.7638 22.9591 6.77251
H 22.4947 23.7001 7.31555
H 23.3201 22.4313 7.34535
O 4.14778 21.2991 26.1376
H 3.60774 22.0724 26.3005