LAMMPS (22 Aug 2018)
Reading data file ...
  orthogonal box = (0 0 0) to (33.2616 33.2616 33.2616)
  4 by 4 by 8 MPI processor grid
  reading atoms ...
  3108 atoms
  scanning bonds ...
  2 = max bonds/atom
  scanning angles ...
  1 = max angles/atom
  reading bonds ...
  2000 bonds
  reading angles ...
  1000 angles
Finding 1-2 1-3 1-4 neighbors ...
  special bond factors lj:   0          0          0         
  special bond factors coul: 0          0          0         
  2 = max # of 1-2 neighbors
  1 = max # of 1-3 neighbors
  1 = max # of 1-4 neighbors
  2 = max # of special neighbors
Setting atom values ...
  1000 settings made for charge
Setting atom values ...
  2000 settings made for charge
Setting atom values ...
  54 settings made for charge
Setting atom values ...
  54 settings made for charge
1000 atoms in group wat
54 atoms in group K
54 atoms in group Cl
PPPM initialization ...
  extracting TIP4P info from pair style
  using 12-bit tables for long-range coulomb (../kspace.cpp:321)
  G vector (1/distance) = 0.31234
  grid = 32 32 32
  stencil order = 5
  estimated absolute RMS force accuracy = 0.00308625
  estimated relative force accuracy = 9.29416e-06
  using double precision FFTs
  3d grid and FFT values/proc = 2475 256
Neighbor list info ...
  update every 1 steps, delay 0 steps, check yes
  max neighbors/atom: 2000, page size: 100000
  master list distance cutoff = 12.3092
  ghost atom cutoff = 12.3092
  binsize = 6.1546, bins = 6 6 6
  1 neighbor lists, perpetual/occasional/extra = 1 0 0
  (1) pair lj/cut/tip4p/long, perpetual
      attributes: half, newton on
      pair build: half/bin/newton
      stencil: half/bin/3d/newton
      bin: standard
Setting up cg style minimization ...
  Unit style    : real
  Current step  : 0
Per MPI rank memory allocation (min/avg/max) = 8.194 | 8.256 | 8.457 Mbytes
Step Temp E_pair E_mol TotEng Press 
       0            0   -565.39678 3.3187846e-05   -565.39674    21269.409 
     874            0   -19468.359    375.02341   -19093.336   -4721.0405 
Loop time of 1.26715 on 128 procs for 874 steps with 3108 atoms

99.0% CPU use with 128 MPI tasks x no OpenMP threads

Minimization stats:
  Stopping criterion = energy tolerance
  Energy initial, next-to-last, final = 
        -565.396744437     -19093.3171802     -19093.3357526
  Force two-norm initial, final = 1453.42 9.20238
  Force max component initial, final = 210.658 2.72238
  Final line search alpha, max atom move = 0.0105153 0.0286266
  Iterations, force evaluations = 874 1564

MPI task timing breakdown:
Section |  min time  |  avg time  |  max time  |%varavg| %total
---------------------------------------------------------------
Pair    | 0.18642    | 0.31618    | 0.49009    |  11.2 | 24.95
Bond    | 0.0010418  | 0.0014309  | 0.0019189  |   0.5 |  0.11
Kspace  | 0.52919    | 0.71183    | 0.84575    |   7.6 | 56.18
Neigh   | 0.0060453  | 0.0061776  | 0.0062737  |   0.1 |  0.49
Comm    | 0.13775    | 0.15809    | 0.17783    |   2.4 | 12.48
Output  | 0          | 0          | 0          |   0.0 |  0.00
Modify  | 0          | 0          | 0          |   0.0 |  0.00
Other   |            | 0.07345    |            |       |  5.80

Nlocal:    24.2812 ave 36 max 13 min
Histogram: 4 7 8 18 25 25 27 7 6 1
Nghost:    2603.73 ave 2678 max 2560 min
Histogram: 18 32 31 11 3 1 0 6 11 15
Neighs:    8051.4 ave 12976 max 3934 min
Histogram: 9 7 14 19 25 27 11 11 4 1

Total # of neighbors = 1030579
Ave neighs/atom = 331.589
Ave special neighs/atom = 1.9305
Neighbor list builds = 19
Dangerous builds = 0
Finding SHAKE clusters ...
  0 = # of size 2 clusters
  0 = # of size 3 clusters
  0 = # of size 4 clusters
  1000 = # of frozen angles
PPPM initialization ...
  extracting TIP4P info from pair style
  using 12-bit tables for long-range coulomb (../kspace.cpp:321)
  G vector (1/distance) = 0.31234
  grid = 32 32 32
  stencil order = 5
  estimated absolute RMS force accuracy = 0.00308625
  estimated relative force accuracy = 9.29416e-06
  using double precision FFTs
  3d grid and FFT values/proc = 2475 256
Setting up Verlet run ...
  Unit style    : real
  Current step  : 0
  Time step     : 0.001
Per MPI rank memory allocation (min/avg/max) = 7.944 | 8.116 | 8.208 Mbytes
Step Temp E_pair E_mol TotEng Press Volume 
       0    439.43332   -19468.359            0   -16708.469   -1845448.3    36798.407 
   10000    175.35302   -17866.714            0   -16765.397    1628.8547     36622.54 
Loop time of 9.29485 on 128 procs for 10000 steps with 3108 atoms

Performance: 0.093 ns/day, 258.190 hours/ns, 1075.864 timesteps/s
99.4% CPU use with 128 MPI tasks x no OpenMP threads

MPI task timing breakdown:
Section |  min time  |  avg time  |  max time  |%varavg| %total
---------------------------------------------------------------
Pair    | 1.0777     | 2.3753     | 3.9795     |  37.4 | 25.55
Bond    | 0.00092397 | 0.0011715  | 0.0035164  |   0.8 |  0.01
Kspace  | 3.0811     | 4.7314     | 6.0374     |  26.8 | 50.90
Neigh   | 0          | 0          | 0          |   0.0 |  0.00
Comm    | 0.79514    | 0.93316    | 1.0728     |   6.8 | 10.04
Output  | 8.1001e-05 | 8.2859e-05 | 8.527e-05  |   0.0 |  0.00
Modify  | 1.0715     | 1.1428     | 1.1931     |   2.6 | 12.30
Other   |            | 0.1109     |            |       |  1.19

Nlocal:    24.2812 ave 36 max 13 min
Histogram: 4 7 8 18 25 25 27 7 6 1
Nghost:    2603.51 ave 2678 max 2560 min
Histogram: 18 33 30 12 2 1 0 6 13 13
Neighs:    8051.38 ave 12977 max 3934 min
Histogram: 9 7 14 19 25 27 11 11 4 1

Total # of neighbors = 1030577
Ave neighs/atom = 331.588
Ave special neighs/atom = 1.9305
Neighbor list builds = 0
Dangerous builds = 0
PPPM initialization ...
  extracting TIP4P info from pair style
  using 12-bit tables for long-range coulomb (../kspace.cpp:321)
  G vector (1/distance) = 0.312453
  grid = 32 32 32
  stencil order = 5
  estimated absolute RMS force accuracy = 0.00307167
  estimated relative force accuracy = 9.25024e-06
  using double precision FFTs
  3d grid and FFT values/proc = 2475 256
Setting up Verlet run ...
  Unit style    : real
  Current step  : 10000
  Time step     : 0.01
Per MPI rank memory allocation (min/avg/max) = 7.944 | 8.116 | 8.208 Mbytes
Step Temp E_pair E_mol TotEng Press Volume 
   10000    175.35302   -17866.714            0   -16765.397   -60121.232     36622.54 
   20000     296.8328   -16674.067            0   -14809.789   -788.97407    37088.079 
Loop time of 9.39945 on 128 procs for 10000 steps with 3108 atoms

Performance: 0.919 ns/day, 26.110 hours/ns, 1063.892 timesteps/s
99.4% CPU use with 128 MPI tasks x no OpenMP threads

MPI task timing breakdown:
Section |  min time  |  avg time  |  max time  |%varavg| %total
---------------------------------------------------------------
Pair    | 0.99242    | 2.3449     | 3.7107     |  35.8 | 24.95
Bond    | 0.00093726 | 0.0011712  | 0.0032885  |   0.7 |  0.01
Kspace  | 3.3811     | 4.7904     | 6.1919     |  25.3 | 50.97
Neigh   | 0.0013309  | 0.0013808  | 0.0014358  |   0.1 |  0.01
Comm    | 0.80456    | 0.93353    | 1.0656     |   6.8 |  9.93
Output  | 8.3707e-05 | 8.5666e-05 | 8.8435e-05 |   0.0 |  0.00
Modify  | 1.1439     | 1.2124     | 1.2672     |   2.5 | 12.90
Other   |            | 0.1155     |            |       |  1.23

Nlocal:    24.2812 ave 33 max 11 min
Histogram: 2 4 3 5 11 39 28 19 8 9
Nghost:    2574.61 ave 2658 max 2521 min
Histogram: 10 26 32 20 8 0 2 5 13 12
Neighs:    7950.88 ave 12364 max 2565 min
Histogram: 1 3 7 19 17 32 23 14 10 2

Total # of neighbors = 1017712
Ave neighs/atom = 327.449
Ave special neighs/atom = 1.9305
Neighbor list builds = 4
Dangerous builds = 0
PPPM initialization ...
  extracting TIP4P info from pair style
  using 12-bit tables for long-range coulomb (../kspace.cpp:321)
  G vector (1/distance) = 0.312153
  grid = 32 32 32
  stencil order = 5
  estimated absolute RMS force accuracy = 0.00311028
  estimated relative force accuracy = 9.36651e-06
  using double precision FFTs
  3d grid and FFT values/proc = 2475 256
Setting up Verlet run ...
  Unit style    : real
  Current step  : 20000
  Time step     : 0.1
Per MPI rank memory allocation (min/avg/max) = 7.944 | 8.122 | 8.208 Mbytes
Step Temp E_pair E_mol TotEng Press Volume 
   20000     296.8328   -16674.068            0   -14809.789   -15111.235    37088.079 
   30000    296.14952   -16669.406            0   -14809.419   -651.79386    33916.696 
Loop time of 9.40024 on 128 procs for 10000 steps with 3108 atoms

Performance: 9.191 ns/day, 2.611 hours/ns, 1063.803 timesteps/s
99.4% CPU use with 128 MPI tasks x no OpenMP threads

MPI task timing breakdown:
Section |  min time  |  avg time  |  max time  |%varavg| %total
---------------------------------------------------------------
Pair    | 1.5111     | 2.5617     | 3.5571     |  26.8 | 27.25
Bond    | 0.00094753 | 0.0011783  | 0.0019146  |   0.5 |  0.01
Kspace  | 3.492      | 4.5074     | 5.5418     |  20.1 | 47.95
Neigh   | 0.01556    | 0.021114   | 0.021772   |   1.0 |  0.22
Comm    | 0.90203    | 1.0129     | 1.123      |   5.0 | 10.78
Output  | 8.015e-05  | 8.1581e-05 | 8.6482e-05 |   0.0 |  0.00
Modify  | 1.0999     | 1.1801     | 1.2305     |   2.7 | 12.55
Other   |            | 0.1158     |            |       |  1.23

Nlocal:    24.2812 ave 32 max 17 min
Histogram: 7 5 19 5 29 17 22 8 10 6
Nghost:    2788.11 ave 2822 max 2761 min
Histogram: 4 14 20 21 24 14 13 7 7 4
Neighs:    8679.22 ave 12934 max 5144 min
Histogram: 6 6 15 30 18 20 21 5 5 2

Total # of neighbors = 1110940
Ave neighs/atom = 357.445
Ave special neighs/atom = 1.9305
Neighbor list builds = 50
Dangerous builds = 0
PPPM initialization ...
  extracting TIP4P info from pair style
  using 12-bit tables for long-range coulomb (../kspace.cpp:321)
  G vector (1/distance) = 0.309665
  grid = 30 30 30
  stencil order = 5
  estimated absolute RMS force accuracy = 0.00379905
  estimated relative force accuracy = 1.14407e-05
  using double precision FFTs
  3d grid and FFT values/proc = 2475 256
Setting up Verlet run ...
  Unit style    : real
  Current step  : 30000
  Time step     : 0.2
Per MPI rank memory allocation (min/avg/max) = 7.949 | 8.171 | 8.217 Mbytes
Step Temp E_pair E_mol TotEng Press Volume 
   30000    296.14952   -16669.407            0    -14809.42   -2391.8286    33916.696 
   40000    297.31027   -16783.645            0   -14916.368   -728.39012    33219.097 
Loop time of 9.65933 on 128 procs for 10000 steps with 3108 atoms

Performance: 17.889 ns/day, 1.342 hours/ns, 1035.268 timesteps/s
99.4% CPU use with 128 MPI tasks x no OpenMP threads

MPI task timing breakdown:
Section |  min time  |  avg time  |  max time  |%varavg| %total
---------------------------------------------------------------
Pair    | 1.6838     | 2.6827     | 3.5418     |  22.5 | 27.77
Bond    | 0.00097497 | 0.0011669  | 0.0019297  |   0.5 |  0.01
Kspace  | 3.5742     | 4.4707     | 5.4639     |  17.3 | 46.28
Neigh   | 0.032211   | 0.032828   | 0.033506   |   0.2 |  0.34
Comm    | 1.0144     | 1.1179     | 1.2339     |   4.6 | 11.57
Output  | 9.108e-05  | 9.3371e-05 | 9.8384e-05 |   0.0 |  0.00
Modify  | 0.99596    | 1.1885     | 1.2701     |   5.9 | 12.30
Other   |            | 0.1654     |            |       |  1.71

Nlocal:    24.2812 ave 33 max 15 min
Histogram: 1 6 10 19 17 31 23 12 4 5
Nghost:    2829.65 ave 2855 max 2806 min
Histogram: 6 5 16 16 27 18 20 11 6 3
Neighs:    8869.87 ave 12980 max 5207 min
Histogram: 2 10 13 22 24 25 14 15 1 2

Total # of neighbors = 1135343
Ave neighs/atom = 365.297
Ave special neighs/atom = 1.9305
Neighbor list builds = 99
Dangerous builds = 0
PPPM initialization ...
  extracting TIP4P info from pair style
  using 12-bit tables for long-range coulomb (../kspace.cpp:321)
  G vector (1/distance) = 0.310165
  grid = 30 30 30
  stencil order = 5
  estimated absolute RMS force accuracy = 0.00372141
  estimated relative force accuracy = 1.12069e-05
  using double precision FFTs
  3d grid and FFT values/proc = 2475 256
Setting up Verlet run ...
  Unit style    : real
  Current step  : 40000
  Time step     : 0.5
Per MPI rank memory allocation (min/avg/max) = 7.953 | 8.202 | 8.217 Mbytes
Step Temp E_pair E_mol TotEng Press Volume 
   40000    297.31027   -16783.644            0   -14916.367   -1091.7964    33219.097 
   50000    317.00506   -16945.256            0   -14954.285    900.68582    32400.178 
Loop time of 10.0153 on 128 procs for 10000 steps with 3108 atoms

Performance: 43.134 ns/day, 0.556 hours/ns, 998.471 timesteps/s
99.4% CPU use with 128 MPI tasks x no OpenMP threads

MPI task timing breakdown:
Section |  min time  |  avg time  |  max time  |%varavg| %total
---------------------------------------------------------------
Pair    | 2.1254     | 2.7639     | 3.5067     |  17.7 | 27.60
Bond    | 0.00096    | 0.0011867  | 0.0019956  |   0.5 |  0.01
Kspace  | 3.9443     | 4.6794     | 5.3262     |  13.5 | 46.72
Neigh   | 0.076174   | 0.078036   | 0.07972    |   0.4 |  0.78
Comm    | 1.0035     | 1.1189     | 1.2644     |   5.3 | 11.17
Output  | 9.2413e-05 | 9.4515e-05 | 9.8183e-05 |   0.0 |  0.00
Modify  | 1.0055     | 1.2234     | 1.3146     |   6.3 | 12.22
Other   |            | 0.1505     |            |       |  1.50

Nlocal:    24.2812 ave 33 max 15 min
Histogram: 3 5 10 19 14 25 29 16 5 2
Nghost:    2870.35 ave 2906 max 2833 min
Histogram: 1 4 10 21 29 21 22 11 6 3
Neighs:    9025.05 ave 13325 max 5010 min
Histogram: 3 5 14 25 25 19 18 13 4 2

Total # of neighbors = 1155207
Ave neighs/atom = 371.688
Ave special neighs/atom = 1.9305
Neighbor list builds = 246
Dangerous builds = 0
PPPM initialization ...
  extracting TIP4P info from pair style
  using 12-bit tables for long-range coulomb (../kspace.cpp:321)
  G vector (1/distance) = 0.310765
  grid = 30 30 30
  stencil order = 5
  estimated absolute RMS force accuracy = 0.0036303
  estimated relative force accuracy = 1.09325e-05
  using double precision FFTs
  3d grid and FFT values/proc = 2475 256
Setting up Verlet run ...
  Unit style    : real
  Current step  : 0
  Time step     : 2
Per MPI rank memory allocation (min/avg/max) = 7.953 | 8.209 | 8.218 Mbytes
Step Temp E_pair E_mol TotEng Press Volume 
       0    317.00506   -16945.255            0   -14954.283    1015.8777    32400.178 
   10000    297.38427   -16840.325            0   -14972.584   -625.86088    33014.434 
   20000    295.25173   -16900.037            0   -15045.688    163.50107    32879.956 
   30000    295.86044   -16896.356            0   -15038.185    711.32206    32378.246 
   40000    292.72057    -16876.77            0   -15038.319    112.80745    32227.645 
   50000    296.05438   -16840.002            0   -14980.613    111.42819    32813.097 
   60000    295.90076    -16794.66            0   -14936.236    709.05041     32470.13 
   70000     297.7218   -16870.977            0   -15001.115   -379.08991    32894.494 
   80000    305.08372   -16825.538            0   -14909.439   -289.86488    33050.501 
   90000    293.66695   -16841.213            0   -14996.818    268.98268    32767.765 
  100000    291.66557   -16929.698            0   -15097.873    584.44896    32284.063 
  110000    293.12803   -16823.591            0   -14982.581   -336.62885    33280.058 
  120000    290.18481   -16909.508            0   -15086.983   -401.24892    32821.123 
  130000    294.35439   -16869.897            0   -15021.185    89.206702    32868.127 
  140000    292.43314   -16888.169            0   -15051.523    317.62531    32289.017 
  150000    301.03725   -16758.525            0    -14867.84   -165.83585    33344.445 
  160000    301.87575    -16877.81            0   -14981.859   -17.948143    32708.516 
  170000    305.44699   -16912.282            0   -14993.902     678.5114    32455.492 
  180000    309.37423   -16865.274            0   -14922.229    139.05252    32420.291 
  190000    297.45885   -16831.804            0   -14963.593   -303.80713    32718.848 
  200000    288.98845    -16839.81            0   -15024.799    73.912672    32714.481 
  210000    297.58315   -16777.388            0   -14908.397   -463.88098    33178.592 
  220000    294.32805   -16841.123            0   -14992.576   -7.0274848    32603.992 
  230000    298.66734   -16941.557            0   -15065.756    1260.0767    32081.316 
  240000    298.55503   -16796.948            0   -14921.853    14.766306    32893.379 
  250000    293.62368    -16819.83            0   -14975.706   -523.70583    32689.084 
  260000    298.77215   -16802.743            0   -14926.284   -140.38541     33099.98 
  270000    296.69914   -16885.705            0   -15022.266    69.466556    32876.455 
  280000    298.00308   -16972.704            0   -15101.076    205.12897    32728.383 
  290000     301.4819   -16809.667            0   -14916.189   -123.22581    33134.604 
  300000    312.18881       -16832            0   -14871.277    377.57916        32579 
  310000    304.65146    -16803.49            0   -14890.107   -183.94112    32844.711 
  320000     290.3422    -16843.64            0   -15020.127    427.17358    32737.984 
  330000     295.6187   -16872.077            0   -15015.424   -336.98762     32779.52 
  340000    294.24548     -16864.5            0   -15016.472    181.47493    32725.665 
  350000     301.4609   -16898.723            0   -15005.377    178.96718    32974.629 
  360000    298.45576   -16856.581            0    -14982.11    443.01737    32584.444 
  370000    292.85203   -16837.165            0   -14997.888    338.41643    32741.109 
  380000    304.94562   -16738.712            0   -14823.481    211.76628    32904.541 
  390000    301.18757   -16808.769            0    -14917.14   -973.99102    32903.569 
  400000    295.14318   -16735.935            0   -14882.269    1.2600007    32940.899 
  410000    297.77711   -16824.992            0   -14954.783    652.83996    32490.432 
  420000    291.38181   -16875.308            0   -15045.265   -308.79374    32428.849 
  430000    290.59411   -16812.907            0   -14987.811   -368.25321    32893.333 
  440000    296.90558   -16916.235            0     -15051.5    603.25857    32502.417 
  450000      294.592   -16962.059            0   -15111.854    370.09651    32159.833 
  460000    294.27561   -16873.219            0   -15025.002   -29.999075    32450.685 
  470000    298.54373   -16932.476            0   -15057.452    210.17163    32450.897 
  480000    297.83833    -16875.09            0   -15004.496     -594.439    32809.902 
  490000    292.47588   -16922.398            0   -15085.483   -364.08844    32802.419 
  500000    299.46044   -16951.538            0   -15070.757    916.44984    32427.788 
  510000    293.05999   -16742.037            0   -14901.454   -632.69639    33230.115 
  520000     298.3194   -16823.119            0   -14949.504   -420.76356     32797.51 
  530000    307.71988    -16863.92            0   -14931.265    184.42581    32595.621 
  540000      288.232   -16884.027            0   -15073.767     325.0675    32086.226 
  550000    305.17037   -16901.939            0   -14985.297   -595.44459    32651.578 
  560000    305.45446   -16888.636            0   -14970.209    338.40569    32150.923 
  570000    304.57348    -16807.65            0   -14894.756    30.685786    32931.905 
  580000     303.9984   -16851.811            0   -14942.528    -108.4905     32556.01 
  590000    293.80748    -16827.88            0   -14982.602   -1142.0123    33149.959 
  600000    299.01939   -16811.009            0   -14932.998     129.6108    32362.701 
  610000    306.48608   -16891.965            0   -14967.058   -211.10384    32767.617 
  620000    299.73464   -16865.194            0   -14982.691    672.10486     32712.61 
  630000    295.84665   -16923.182            0   -15065.098    145.89133    32717.284 
  640000    296.27044   -16892.515            0   -15031.768    486.95102    32408.781 
  650000     300.1786   -16833.429            0   -14948.137    559.74941    32669.705 
  660000    301.95935   -16877.633            0   -14981.157   -61.591246    32814.372 
  670000    299.41367   -16850.391            0   -14969.904    127.71478    33051.523 
  680000    298.46219    -16837.38            0   -14962.868   -757.88929    32945.521 
  690000    297.15888   -16879.505            0   -15013.178   -397.91351    32988.449 
  700000    303.55425   -16897.883            0    -14991.39    216.52515    32295.283 
  710000    286.80764   -16807.291            0   -15005.976    556.58295    32381.991 
  720000    299.35164   -16872.496            0   -14992.398     337.2894    32859.611 
  730000    302.19842   -16831.403            0   -14933.425    177.46456    32960.121 
  740000    295.71671   -16759.272            0   -14902.003    29.237195    32841.033 
  750000    296.76648   -16850.272            0    -14986.41   -258.64925    32620.502 
  760000    300.22726    -16848.09            0   -14962.493    65.680226    32752.713 
  770000     294.2173   -16861.795            0   -15013.944   -234.66901    32838.339 
  780000    298.30907   -16897.168            0   -15023.618   -195.21267     32949.54 
  790000    302.17135   -16848.822            0   -14951.014   -475.55438      32778.4 
  800000    299.93033   -16807.184            0   -14923.451   -262.03507    32765.532 
  810000    293.30345   -16812.283            0   -14970.171     355.1599    32557.971 
  820000     294.8739   -16795.527            0   -14943.552   -297.65807    33162.347 
  830000    299.43734   -16816.457            0   -14935.821   -550.36081    32860.658 
  840000    304.07892   -16801.275            0   -14891.487    1428.7861    32631.566 
  850000    298.87708   -16861.409            0   -14984.291    -647.7629    32843.127 
  860000    301.40974   -16824.165            0   -14931.141   -209.53413    32520.166 
  870000    289.80303   -16921.386            0   -15101.259   -287.88082    32702.284 
  880000    305.14267   -16778.729            0    -14862.26   -6.5771001    32938.757 
  890000    294.16966   -16853.302            0    -15005.75    554.95159    32476.548 
  900000    307.48048   -16792.657            0   -14861.505    567.45577    32824.731 
  910000    294.21259   -16843.335            0   -14995.514    24.013244    32716.156 
  920000    291.18592   -16813.955            0   -14985.142   -750.22218    33012.318 
  930000    302.23454   -16829.865            0   -14931.661   -36.431493    33210.014 
  940000    292.21545   -16859.699            0   -15024.421   -418.57688    32655.642 
  950000    300.64116   -16870.227            0    -14982.03     61.44369    32769.796 
  960000    289.65657   -16882.669            0   -15063.462    110.56875    32520.366 
  970000    297.53984   -16994.867            0   -15126.148    650.11098    32431.819 
  980000    305.28366   -16867.593            0   -14950.239   -362.51934    32648.976 
  990000    291.49037   -16796.409            0   -14965.685    412.68594    32840.632 
 1000000    297.67539    -16866.34            0    -14996.77   -74.270517    32707.892 
 1010000    304.28506    -16787.25            0   -14876.167    311.49447      32727.3 
 1020000    299.31705   -16964.453            0   -15084.572    64.090254    32339.407 
 1030000    294.38955   -16949.219            0   -15100.286   -97.318733     32433.06 
 1040000    285.05145   -16817.207            0   -15026.922   -1057.1318    32751.097 
 1050000    300.80988   -16775.138            0   -14885.881    40.600354    33055.905 
 1060000    292.38342    -16820.69            0   -14984.357   -295.79701    32872.339 
 1070000    306.43307    -16845.88            0   -14921.306   -13.682423    32855.067 
 1080000     300.4694   -16839.842            0   -14952.724    204.10993    32801.535 
 1090000    303.68573   -16850.986            0   -14943.668    369.97107     32743.38 
 1100000    298.36431   -16931.885            0   -15057.988    391.08159    32673.869 
 1110000    291.84735   -16869.792            0   -15036.826   -329.73346    33089.138 
 1120000    297.74459   -16822.421            0   -14952.416    -667.9302    32774.493 
 1130000    292.06034   -16779.534            0    -14945.23    694.57573    32323.515 
 1140000    298.78571   -16866.909            0   -14990.365    527.83222     32398.01 
 1150000    312.63747   -16887.018            0   -14923.477   -174.24971    33030.305 
 1160000     301.6996    -16842.85            0   -14948.006   -262.11948    32940.058 
 1170000    292.30991   -16833.549            0   -14997.677   -737.06253     32996.66 
 1180000     300.1242   -16886.719            0   -15001.769    -444.2107    32930.525 
 1190000    294.87436   -16795.492            0   -14943.514   -862.13513    32954.788 
 1200000    304.94104   -16837.419            0   -14922.217    82.509807    32496.177 
 1210000    298.10376   -16791.999            0   -14919.739   -68.788204     32828.08 
 1220000    300.80392   -16805.928            0   -14916.709    -178.6769    32650.739 
 1230000     300.8382   -16853.757            0   -14964.323   -1.5636595    33054.086 
 1240000    297.89307   -16890.049            0   -15019.112    576.58805    32583.328 
 1250000    300.40228   -16818.287            0    -14931.59   -407.96745    32764.512 
 1260000    294.73642   -16876.897            0   -15025.785    498.39742    32409.065 
 1270000    299.18786   -16826.984            0   -14947.914   -50.885809    32730.066 
 1280000    295.14729   -16915.127            0   -15061.435   -117.93054    32264.299 
 1290000    296.98399   -16856.963            0   -14991.736   -415.30318    33434.073 
 1300000    301.74684   -16824.274            0   -14929.133    298.72248    32691.999 
 1310000    295.69373   -16894.304            0    -15037.18   -688.61064    32716.761 
 1320000    298.45141   -16869.308            0   -14994.864   -307.97607    32714.476 
 1330000    303.55683   -16896.113            0   -14989.604    665.53644    32986.766 
 1340000    296.31515   -16777.012            0   -14915.985   -437.76636    33252.272 
 1350000     292.8735   -16846.747            0   -15007.335   -511.33898    32647.563 
 1360000    310.16411   -16708.284            0   -14760.278   -147.38771    32725.457 
 1370000    310.61046   -16880.348            0   -14929.538    312.27802    32621.041 
 1380000    306.29965   -16782.068            0   -14858.333    406.08328    32823.518 
 1390000     293.8344   -16896.424            0   -15050.978    360.08644    32391.155 
 1400000    300.52829   -16877.011            0   -14989.523     332.4644    32699.064 
 1410000    296.99068   -16850.375            0   -14985.105    362.60387    32876.605 
 1420000    294.41572   -16883.441            0   -15034.344    118.89895    32638.345 
 1430000    299.52049   -16890.229            0    -15009.07   -104.89692    32622.238 
 1440000    298.62769   -16966.844            0   -15091.293    579.36861    32427.451 
 1450000    299.76549   -16830.807            0    -14948.11    406.64842    32766.034 
 1460000    298.85831   -16845.249            0   -14968.249   -358.77807    32928.797 
 1470000    305.49401   -16818.908            0   -14900.232    994.05236    32665.638 
 1480000    298.51466   -16806.097            0   -14931.256   -1264.4702    33120.009 
 1490000    306.32099   -16829.799            0   -14905.929   -462.88751    32810.507 
 1500000    303.60275   -16874.851            0   -14968.054    517.57137    32753.577 
 1510000    290.20666   -16837.816            0   -15015.154      198.221    32653.411 
 1520000    298.97206   -16952.304            0    -15074.59    400.49158    32475.996 
 1530000     291.1955   -16976.157            0   -15147.284   -12.705748     32618.25 
 1540000    289.96318   -16840.148            0   -15019.015    533.96398    32492.079 
 1550000    299.96381   -16902.473            0    -15018.53     331.6401    32769.307 
 1560000     297.9614   -16857.327            0   -14985.961   -65.638242        32901 
 1570000    297.84191   -16881.808            0   -15011.192   -540.82992    32646.588 
 1580000    291.50468   -16813.089            0   -14982.274      353.252    32753.363 
 1590000    294.12461   -16900.608            0   -15053.339    46.657684    32612.784 
 1600000    292.85054   -16870.281            0   -15031.013     398.7113    32800.265 
 1610000    292.74887   -16929.867            0   -15091.239   -1007.1166     33182.77 
 1620000      302.776   -16943.648            0   -15042.043    187.95427    32411.448 
 1630000    302.51138   -16900.894            0   -15000.951    421.60774    32786.274 
 1640000    292.04886   -16837.076            0   -15002.844    658.47794    32842.794 
 1650000    303.22335   -16921.671            0   -15017.256    12.808587    32793.146 
 1660000    291.04411   -16885.487            0   -15057.565     1056.366    32691.256 
 1670000    305.24941   -16818.069            0    -14900.93   -773.68427     32738.08 
 1680000    299.73729   -16804.824            0   -14922.304     121.6341    32933.868 
 1690000    289.68696   -16882.306            0   -15062.908   -698.99548    33009.596 
 1700000    291.63084   -16950.121            0   -15118.515   -995.77946    32789.801 
 1710000    297.75032   -16904.575            0   -15034.534    598.81412    32862.181 
 1720000    301.80981   -16811.361            0   -14915.824    495.51792    32428.688 
 1730000    299.04174   -16879.677            0   -15001.525    227.96942    32699.959 
 1740000    294.35681   -16865.913            0   -15017.185    425.52227    32916.797 
 1750000    302.88485   -16801.027            0   -14898.738    316.98798    33109.683 
 1760000    292.27039   -16751.018            0   -14915.394     653.6166    33023.158 
 1770000    292.60059   -16843.135            0   -15005.438    16.014513    32770.743 
 1780000    297.09383   -16831.226            0   -14965.309    -830.0985    32709.928 
 1790000    299.49886   -16750.833            0    -14869.81   -488.05117    32987.502 
 1800000    308.52935   -16859.501            0   -14921.762    609.08959    32822.378 
 1810000    295.82798   -16792.139            0   -14934.172   -458.16793    33027.109 
 1820000    286.29247   -16857.778            0   -15059.699   -497.77668    32999.094 
 1830000    295.56045    -16940.47            0   -15084.182   -628.87813    32720.041 
 1840000    299.63801   -16945.498            0   -15063.601    -301.1696    32630.456 
 1850000    300.73167    -16862.91            0   -14974.145    170.19977    33000.273 
 1860000    298.88701   -16902.494            0   -15025.314   -822.84397    32834.477 
 1870000    302.45945   -16948.583            0   -15048.966    169.73741    32620.178 
 1880000    304.70934   -16834.081            0   -14920.334    542.69902    32794.545 
 1890000    291.14529   -16887.398            0    -15058.84    -847.3984    33171.045 
 1900000    299.46307   -16836.213            0   -14955.416     -888.857    33340.505 
 1910000    293.15134   -16962.217            0    -15121.06   -291.64614    32810.435 
 1920000    298.34766    -16834.59            0   -14960.798    1067.4798    32930.035 
 1930000    295.96806   -16852.797            0    -14993.95   -267.59014    33098.839 
 1940000    303.81493   -16854.946            0   -14946.816    197.66275    32630.868 
 1950000    297.94824   -16913.087            0   -15041.803    543.78136    32645.862 
 1960000    299.97248   -16919.711            0   -15035.714    570.41255    32373.451 
 1970000    298.10411   -16814.891            0   -14942.628    106.12338    33007.648 
 1980000    293.69628   -16897.845            0   -15053.266   -92.849951    32857.137 
 1990000    294.86695   -16867.825            0   -15015.893    910.64708    32518.668 
 2000000     294.9751   -16828.772            0   -14976.161    153.88395     32872.16 
 2010000    305.96401   -16869.342            0   -14947.715    292.68459    33054.846 
 2020000    300.40711   -16830.571            0   -14943.844   -469.72112    32809.864 
 2030000    307.17352   -16879.282            0   -14950.058    289.51045    32773.623 
 2040000    300.21877    -16865.42            0   -14979.876   -28.235878    32711.304 
 2050000    301.58545   -16740.559            0   -14846.432    141.74297    32908.039 
 2060000    292.98728   -16876.697            0   -15036.571    248.36768    32931.013 
 2070000    290.56709   -16949.806            0    -15124.88   -73.021359    32765.708 
 2080000    295.10791   -16913.469            0   -15060.024   -537.14819    32826.129 
 2090000    294.11104   -16791.917            0   -14944.733    761.29648    33138.943 
 2100000    289.96021   -16834.321            0   -15013.207   -289.59408    33039.807 
 2110000    297.29973   -16797.807            0   -14930.596   -358.50826    32789.587 
 2120000    293.76634   -16794.188            0   -14949.169    282.46167    32415.375 
 2130000    296.02748   -16833.152            0   -14973.932   -632.99723    33295.266 
 2140000    303.25026   -16871.516            0   -14966.933   -9.9425873    32794.372 
 2150000     304.0649   -16903.309            0   -14993.609   -349.97505    32846.461 
 2160000    306.96809    -16838.99            0   -14911.056     297.3391    32945.041 
 2170000    289.18799   -16924.298            0   -15108.033    591.98998    32680.259 
 2180000     303.4907   -16851.194            0     -14945.1     236.1597    32511.162 
 2190000    297.08769   -16766.012            0   -14900.133   -437.29147    33252.127 
 2200000     297.3569   -16877.628            0   -15010.058    -700.0473     32948.45 
 2210000     294.6521    -16851.83            0   -15001.248    140.13754    32801.385 
 2220000    294.45839     -16955.9            0   -15106.534   -1302.4175    32821.039 
 2230000    290.77144   -16914.451            0   -15088.242    483.01789    32727.816 
 2240000    303.95109    -16828.66            0   -14919.675   -297.88859    33250.358 
 2250000     299.9701   -16774.039            0   -14890.057   -166.37088    32952.278 
 2260000    292.92074   -16810.781            0   -14971.073   -543.57647    32757.721 
 2270000    300.30031   -16940.921            0   -15054.865    1057.7517    32451.165 
 2280000    294.88426   -16860.397            0   -15008.357   -659.49059    32576.923 
 2290000    292.16465   -16894.389            0    -15059.43    705.74948    32631.938 
 2300000      292.285   -16825.425            0   -14989.709   -111.78544     33123.02 
 2310000    293.29442   -16840.866            0   -14998.811    681.36315    32522.601 
 2320000    301.52052    -16836.64            0    -14942.92    176.98577    32932.694 
 2330000    300.08756   -16901.392            0   -15016.672    392.50676    32462.386 
 2340000    296.87909   -16896.708            0   -15032.139   -223.68564    33115.581 
 2350000    304.95622   -16857.924            0   -14942.626    486.26807    32595.607 
 2360000    296.15494   -16962.383            0   -15102.362    891.72002    32210.501 
 2370000    289.63449   -16862.066            0   -15042.997     377.5891     32513.93 
 2380000    304.76056   -16848.938            0   -14934.869     591.9587     32778.81 
 2390000    298.49589   -16911.849            0   -15037.126    643.15832    32779.645 
 2400000    296.77652   -16806.451            0   -14942.527   -473.95073    33478.694 
 2410000    300.37828   -16871.944            0   -14985.398   -76.433965    32692.525 
 2420000    297.91492    -16890.01            0   -15018.935    121.54905    32637.989 
 2430000    298.75843   -16874.181            0   -14997.808    321.10473    32418.519 
 2440000    301.89762   -16893.788            0     -14997.7    433.37938    32373.865 
 2450000    302.95087   -16864.466            0   -14961.763   -428.18315    33042.838 
 2460000    294.21678   -16753.165            0   -14905.317   -300.96336    33142.592 
 2470000    305.76156   -16915.664            0   -14995.308   -1149.2907    33161.358 
 2480000    290.17806   -16859.138            0   -15036.656    123.23104    32618.789 
 2490000    298.72317   -16900.534            0   -15024.383   -630.29889    32970.858 
 2500000    300.14962   -16884.538            0   -14999.429    -58.93535     32841.57 
 2510000    300.49846   -16836.051            0   -14948.751    257.86724    32632.321 
 2520000    288.45571   -16929.747            0   -15118.082    394.74874    32534.841 
 2530000    295.55172   -16823.496            0   -14967.263    64.674667    32245.779 
 2540000    300.73709   -16877.524            0   -14988.724    92.216526    32998.082 
 2550000    304.26958   -16820.127            0   -14909.142    984.00637    32664.489 
 2560000    290.83751   -16835.095            0    -15008.47    835.95618    32455.789 
 2570000    295.20825   -16788.628            0   -14934.553   -644.08621    32599.329 
 2580000     302.1526   -16860.607            0   -14962.918    174.54954    32614.068 
 2590000     290.3351   -16831.496            0   -15008.027   -447.88769    32658.064 
 2600000    303.76765   -16828.633            0     -14920.8   -125.88093    32682.625 
 2610000    290.51101   -16875.287            0   -15050.713   -391.44558    32545.618 
 2620000    301.26966   -16801.459            0   -14909.314     241.9552    32568.668 
 2630000    298.09307   -16798.804            0    -14926.61    221.78138    32936.559 
 2640000    299.44997   -16788.459            0   -14907.743   -404.30148    33215.963 
 2650000    301.92964   -16778.438            0   -14882.149     171.1778    32669.405 
 2660000    291.85625   -16943.626            0   -15110.603    154.31097    32355.272 
 2670000    302.30332   -16964.871            0   -15066.235    42.859047    32663.409 
 2680000    299.47921   -16882.936            0   -15002.037    260.63456    32657.395 
 2690000    292.75938   -16773.592            0   -14934.897    537.15092    32569.911 
 2700000    305.05979   -16906.801            0   -14990.852   -790.18841    33029.487 
 2710000    306.89218   -16906.631            0   -14979.174    84.755714     32528.82 
 2720000    301.38516   -16829.387            0   -14936.517    513.71784    32904.393 
 2730000    295.31892   -16917.239            0   -15062.469   -716.41434    33152.026 
 2740000    296.38779   -16837.833            0    -14976.35   -52.291502    32434.202 
 2750000    287.01894   -16792.579            0   -14989.937   -687.96151    33125.276 
 2760000    301.21252   -16872.445            0    -14980.66    346.56168    32898.533 
 2770000    295.09418   -16885.097            0   -15031.738    213.77626    32566.805 
 2780000    300.45963   -16878.819            0   -14991.762    -158.0928    32630.942 
 2790000    298.32026   -16937.913            0   -15064.293   -398.28598     32450.94 
 2800000    297.17999   -16834.173            0   -14967.714    198.20538     32681.72 
 2810000     299.8331   -16923.759            0   -15040.637   -289.63528    32874.396 
 2820000    293.67613   -16901.865            0   -15057.412   -168.13793    32924.775 
 2830000    297.74946   -16907.753            0   -15037.717   -771.26443    32524.551 
 2840000    301.34848   -16821.581            0   -14928.942   -355.69013    32752.389 
 2850000    300.83945   -16942.889            0   -15053.446    297.29455    32370.064 
 2860000    306.79063   -16968.875            0   -15042.056    503.91007    32511.095 
 2870000    291.32055   -16851.588            0    -15021.93   -235.28344    33159.442 
 2880000    293.68967   -16918.917            0   -15074.379   -278.28801    32821.869 
 2890000    293.19249   -16826.127            0   -14984.712   -115.11563    32829.428 
 2900000    299.40811   -16849.769            0   -14969.316    843.06964    32867.984 
 2910000    293.64401    -16891.84            0   -15047.589    164.07929    32607.235 
 2920000     298.9194   -16824.544            0   -14947.161     947.3392     32340.38 
 2930000    286.94169   -16800.312            0   -14998.155    280.61648    32961.857 
 2940000    293.58371   -16937.267            0   -15093.395    335.69053     32644.65 
 2950000    299.79924   -16762.796            0   -14879.887    417.86346    32462.641 
 2960000    296.12318   -16736.965            0   -14877.143    178.41083    32697.357 
 2970000    294.20883   -16657.496            0   -14809.698   -792.78641    33160.048 
 2980000    295.40231   -16904.468            0   -15049.174   -655.58131    32752.967 
 2990000    294.85498   -16890.012            0   -15038.156   -53.869025    32696.735 
 3000000    294.66866    -16810.92            0   -14960.234    -654.4068    33407.484 
 3010000    293.28291   -16886.261            0   -15044.278   -283.81923    32659.895 
 3020000    297.80797   -16939.313            0    -15068.91    176.87084     32206.71 
 3030000    305.35786   -16872.449            0   -14954.628    280.57986    32798.162 
 3040000     299.7694   -16905.607            0   -15022.886    -410.9675    32905.565 
 3050000    296.37179   -16919.605            0   -15058.223    44.672523    32347.712 
 3060000    297.45499   -16931.444            0   -15063.258    164.77393    32534.527 
 3070000    287.72956   -16969.055            0   -15161.951   -321.32959    32887.282 
 3080000    297.75392   -16910.916            0   -15040.853   -269.24642     33208.34 
 3090000     290.0657   -16842.809            0   -15021.032    407.20679    32403.797 
 3100000    294.10185   -16882.191            0   -15035.065   -359.25144    33236.624 
 3110000    290.24832   -16821.893            0   -14998.969   -103.74738    32476.677 
 3120000    300.62915   -16840.291            0   -14952.169   -456.68628    33183.331 
 3130000    295.90525   -16960.907            0   -15102.454     491.0672    32756.107 
 3140000    301.80408   -16889.775            0   -14994.274    1049.8383    32549.331 
 3150000    293.58464   -16775.225            0   -14931.347    -415.8763    32801.982 
 3160000    303.19851   -16806.068            0   -14901.809    5.1040564    32913.878 
 3170000    287.19974   -16904.023            0   -15100.246    354.54152    32660.272 
 3180000    293.31127   -16864.024            0   -15021.863   -350.32525    32916.119 
 3190000    296.01479   -16820.058            0   -14960.917   -441.19859    33260.639 
 3200000    292.62361   -16875.272            0    -15037.43   -1157.0401    32874.046 
 3210000    293.31949   -16851.791            0   -15009.579    52.893557    32767.143 
 3220000    305.19332   -16795.021            0   -14878.234    534.92025    32761.912 
 3230000    302.68246   -16865.488            0    -14964.47      469.329    32676.974 
 3240000    307.53919   -16851.734            0   -14920.213   -271.79501    32928.271 
 3250000    296.79299    -16916.97            0   -15052.941   -568.50526    32771.061 
 3260000    302.91762   -16862.294            0   -14959.799    692.60819    32494.827 
 3270000    304.38236   -16856.425            0   -14944.731   -184.16281    32715.092 
 3280000    298.48568   -16775.307            0   -14900.648   -904.25078    32776.502 
 3290000    304.94854   -16909.054            0   -14993.805    304.20387     32988.65 
 3300000    305.24878    -16898.72            0   -14981.585    -43.22129    32603.135 
 3310000    297.44081   -16903.597            0     -15035.5   -958.62275    32925.811 
 3320000    298.76844   -16889.464            0   -15013.029    612.20995    32768.149 
 3330000    296.78152   -16781.415            0   -14917.459   -112.85771    32703.879 
 3340000    293.98751    -16851.37            0   -15004.962   -449.37983    32520.384 
 3350000    292.94263   -16819.588            0   -14979.742   -948.65419    33104.715 
 3360000    297.86479   -16924.992            0   -15054.232   -562.11095     32766.03 
 3370000     302.0433   -16856.675            0   -14959.671    36.994386     32904.76 
 3380000    292.75105   -16897.958            0   -15059.315   -448.37911    32373.211 
 3390000    303.49676   -16783.382            0    -14877.25   -960.76564     33006.45 
 3400000    306.04696    -16851.58            0   -14929.431   -174.27076    32643.273 
 3410000    301.01883   -16812.055            0   -14921.486    188.94995    33301.667 
 3420000    298.03116   -16946.228            0   -15074.423    810.89136    32497.646 
 3430000    287.90439   -16840.206            0   -15032.003   -198.33617    32722.978 
 3440000    296.49266    -16920.46            0   -15058.318   -310.56283    32593.826 
 3450000    293.86227   -17028.627            0   -15183.005    121.93401    32885.657 
 3460000      297.446   -16980.078            0   -15111.948     618.1657     32248.91 
 3470000    300.78394    -16828.55            0   -14939.457   -1357.2403     33347.55 
 3480000    302.90236   -16793.717            0   -14891.318    90.562484    32628.968 
 3490000    289.99166   -16805.087            0   -14983.775      12.8947      32633.3 
 3500000    291.38867   -16848.696            0    -15018.61    -563.6371    32877.044 
 3510000    293.43772   -16812.796            0   -14969.841   -644.45484    33135.784 
 3520000    294.47323   -16786.047            0   -14936.588    89.514908    32825.088 
 3530000    289.16294   -16880.492            0   -15064.385   -109.51627    32864.181 
 3540000    305.01949    -16891.52            0   -14975.825    161.28131    32388.952 
 3550000    295.64646   -16864.469            0   -15007.641   -515.10265    32588.942 
 3560000    299.71463    -16829.39            0   -14947.012      287.895     32768.08 
 3570000    289.28698   -16819.894            0   -15003.008    314.52255    32691.393 
 3580000    301.55926   -16849.581            0   -14955.618    55.475625    32748.905 
 3590000    303.92372   -16689.969            0   -14781.155    154.67223    32983.154 
 3600000    298.59552   -16768.311            0   -14892.962   -626.07854    33302.938 
 3610000    291.47612   -16829.358            0   -14998.723    433.80604    32419.089 
 3620000    293.92772   -16757.707            0   -14911.674   -283.49692    32508.956 
 3630000    288.81887   -16770.337            0   -14956.391   -580.26802    32975.515 
 3640000    294.38286   -16832.508            0   -14983.617    4.0125026    32771.884 
 3650000    295.69297   -16881.458            0   -15024.339   -35.013719    33004.726 
 3660000    290.17433    -16888.55            0    -15066.09    71.492513    32292.242 
 3670000    305.28049   -16882.716            0   -14965.382   -187.36001    32653.857 
 3680000    294.45525   -16847.642            0   -14998.296   -623.82395    32949.892 
 3690000    288.32071   -16866.672            0   -15055.854     763.4046    32608.476 
 3700000    303.36695    -16857.79            0   -14952.474    48.743913    32944.483 
 3710000    292.71164   -16880.306            0   -15041.911    71.482032    32661.702 
 3720000    298.08594   -16859.836            0   -14987.688   -227.66987    32688.095 
 3730000    295.68855   -16913.864            0   -15056.773   -1330.0184    33079.653 
 3740000    300.25405   -16865.113            0   -14979.347     5.452278    33038.906 
 3750000    293.64603   -16892.519            0   -15048.256   -23.400483      33159.8 
 3760000    305.98653   -16820.585            0   -14898.816    444.08417    32655.056 
 3770000    300.07094   -16875.085            0    -14990.47    211.76606    32527.749 
 3780000    301.54974   -16906.238            0   -15012.335    122.79222    33042.535 
 3790000    299.75931   -16866.029            0   -14983.371    142.97896    32677.208 
 3800000    303.78767   -16851.935            0   -14943.976   -500.33309    33087.445 
 3810000    287.17712   -16846.576            0   -15042.941   -570.62958    32461.581 
 3820000    306.31515   -16847.629            0   -14923.796    149.60956    32512.114 
 3830000    293.01802   -16820.675            0   -14980.356   -442.57241    32809.932 
 3840000    299.95395   -16798.642            0   -14914.761    863.65685    32133.032 
 3850000    300.14275   -16832.862            0   -14947.796   -1121.2803    32925.887 
 3860000    296.56813   -16813.742            0   -14951.126   -480.35823    32674.132 
 3870000    299.23585   -16881.709            0   -15002.339   -112.75739      32669.1 
 3880000    294.12091   -16924.013            0   -15076.767   -269.39239    32595.875 
 3890000     291.6336   -16849.778            0   -15018.154    5.2971756    32932.321 
 3900000    295.12269   -16936.167            0   -15082.629   -605.97304    32872.652 
 3910000    304.29124   -16865.302            0   -14954.181   -552.08475    32878.299 
 3920000    292.15768   -16854.921            0   -15020.005   -249.32628    33239.919 
 3930000    305.83269   -16839.224            0   -14918.421     800.0755    32362.341 
 3940000    294.71825   -16830.425            0   -14979.427   -165.20093    32953.208 
 3950000    294.90838   -16817.966            0   -14965.774    77.900424    32721.521 
 3960000    291.72446   -16848.148            0   -15015.953     117.1904    32972.859 
 3970000    291.33713   -16800.588            0   -14970.826   -582.32318    33260.669 
 3980000    300.43579   -16850.345            0   -14963.438    909.80425    32387.445 
 3990000    298.86896   -16845.286            0   -14968.219    657.52387    32530.082 
 4000000    296.15973   -16786.783            0   -14926.732   -170.47796    32854.797 
 4010000    298.15084   -16786.428            0   -14913.872    572.93907    32238.762 
 4020000    301.36993    -16841.48            0   -14948.706    875.70509     32552.48 
 4030000     295.9255   -16840.377            0   -14981.797    449.15546    32701.889 
 4040000    291.10623   -16847.425            0   -15019.113   -166.07479    32965.629 
 4050000    304.55108   -16792.042            0   -14879.288   -26.309362    32573.792 
 4060000    302.13713    -16850.12            0   -14952.527    1133.9334    32461.752 
 4070000    305.76298    -16897.07            0   -14976.705   -850.61812    33080.984 
 4080000    299.99435   -16795.413            0   -14911.278   -930.50153    32977.379 
 4090000    293.52576   -16881.188            0    -15037.68    319.88088    32818.195 
 4100000    294.63509   -16817.526            0   -14967.051    335.67024    32152.047 
 4110000    293.40837    -16847.61            0   -15004.839    240.93039    32642.769 
 4120000    292.98717   -16854.274            0   -15014.148    126.92708    32835.792 
 4130000    293.39467   -16803.678            0   -14960.993   -481.57576    33431.376 
 4140000    302.29637    -16879.16            0   -14980.568   -50.070472     32590.69 
 4150000    297.13234   -16859.948            0   -14993.789    707.87698    32587.007 
 4160000    290.78308   -16880.501            0   -15054.218    214.59865    32724.002 
 4170000    291.14465   -16866.327            0   -15037.774    76.282997    33182.144 
 4180000    303.72167   -16876.874            0    -14969.33    282.95266     32673.93 
 4190000    301.12941   -16764.665            0   -14873.401    97.778187    32634.017 
 4200000    295.85551   -16856.587            0   -14998.447    676.73204     32563.47 
 4210000    297.89332   -16815.681            0   -14944.742    359.60377    33008.001 
 4220000    287.76714   -16876.427            0   -15069.087   -436.31957    32462.344 
 4230000    296.48119   -16859.094            0   -14997.024    156.57486    32544.397 
 4240000    289.08429   -16809.506            0   -14993.893   -228.34438    32868.667 
 4250000    303.17841   -16847.912            0    -14943.78    -221.1823    32795.091 
 4260000    304.34045   -16840.523            0   -14929.092   -577.86338    32863.447 
 4270000    297.14476   -16927.611            0   -15061.374   -385.80683     32925.27 
 4280000    291.72491   -16895.398            0     -15063.2   -734.75923    33073.249 
 4290000    290.85012   -16900.441            0   -15073.738    44.529223    32599.334 
 4300000    298.21132   -16794.679            0   -14921.743   -1443.1722    33113.287 
 4310000    288.48808   -16841.907            0   -15030.038   -259.62308    32881.778 
 4320000    302.70565   -16864.909            0   -14963.746    929.72659    32251.299 
 4330000    296.62927   -16862.552            0   -14999.552    293.38242     32649.98 
 4340000    300.17513   -16792.228            0   -14906.958   -699.90823    33125.775 
 4350000    293.59752   -16873.334            0   -15029.375    235.18593     32594.07 
 4360000    303.81283   -16881.392            0   -14973.275   -735.16047    32993.999 
 4370000     289.0567   -16754.555            0   -14939.115    498.19515    32981.087 
 4380000    294.89628   -16786.801            0   -14934.686   -79.084407     32833.52 
 4390000    290.21896   -16796.414            0   -14973.674   -773.82596    32826.165 
 4400000     300.3033    -16928.96            0   -15042.885    152.22584    32377.606 
 4410000    298.25568   -16831.665            0    -14958.45   -861.09626    32798.071 
 4420000    288.79369   -16879.958            0    -15066.17   -68.970472    32628.591 
 4430000    296.51116   -16887.395            0   -15025.137     1149.727    32350.259 
 4440000    301.92197   -16814.008            0   -14917.767   -327.64015    32737.522 
 4450000    304.46183   -16921.182            0   -15008.989    622.54742    32456.828 
 4460000    299.91336   -16811.998            0   -14928.372    380.74793    32842.459 
 4470000     291.7149   -16834.795            0    -15002.66   -207.09703    33220.728 
 4480000    294.79101   -16768.949            0   -14917.494   -981.99251    33269.534 
 4490000    298.46684   -16813.786            0   -14939.245   -87.453973    32800.485 
 4500000    298.89277    -16776.47            0   -14899.254   -532.05711    33319.149 
 4510000    301.48623   -16730.832            0   -14837.327    241.51851     33114.66 
 4520000    298.83018   -16869.143            0    -14992.32    371.62547    32372.691 
 4530000    296.58363   -16928.968            0   -15066.255    208.49633    32572.516 
 4540000    301.36902   -16868.979            0   -14976.211    808.40726     32632.28 
 4550000    299.41582   -16951.571            0    -15071.07    1069.8902    32716.599 
 4560000    300.75206   -16812.132            0   -14923.238   -111.22909    32755.417 
 4570000    306.41692   -16836.473            0   -14912.001   -624.26683    33063.141 
 4580000    305.96843   -16837.803            0   -14916.147   -118.21317    32831.882 
 4590000    296.30189   -16879.529            0   -15018.585    330.97799    32911.545 
 4600000    294.58924   -16855.203            0   -15005.015    -314.7753    32905.384 
 4610000    295.40482   -16873.631            0   -15018.321    257.75698    33076.126 
 4620000    301.01585    -16749.72            0   -14859.169    39.543047    32849.667 
 4630000    305.83132   -16946.869            0   -15026.075    426.58055    32641.815 
 4640000    306.54582   -16758.869            0   -14833.588    185.92901    32964.563 
 4650000    288.32785   -16860.357            0   -15049.495   -1130.9062    32835.241 
 4660000    302.46452   -16858.263            0   -14958.615    985.10099    32499.174 
 4670000    293.98153   -16796.753            0   -14950.383   -217.87281    33122.144 
 4680000    298.47527   -16789.805            0   -14915.211   -311.33907    33496.066 
 4690000    293.84823   -16893.083            0   -15047.549   -147.87566    32738.153 
 4700000    292.64889   -16838.918            0   -15000.917   -130.42467    32728.008 
 4710000    299.83367   -16949.319            0   -15066.193   -329.15247    32712.748 
 4720000    301.98189   -16929.704            0   -15033.086    844.35227    32550.762 
 4730000    296.78232   -16931.764            0   -15067.802    705.02727    32643.593 
 4740000    298.47296   -16912.173            0   -15037.594    110.94321    32527.976 
 4750000    301.14824   -16954.595            0   -15063.213    156.08347    32552.967 
 4760000    291.64866   -16779.477            0   -14947.758   -310.73013     33018.16 
 4770000    298.36131   -16918.289            0    -15044.41    55.277125     32580.59 
 4780000    294.50214   -16862.584            0   -15012.943   -617.55169    32859.095 
 4790000    294.64843   -16824.653            0   -14974.094    271.50446    32747.424 
 4800000    300.85465   -16807.497            0    -14917.96    286.54775     32605.46 
 4810000    295.48041   -16881.187            0   -15025.403   -730.81814    33007.744 
 4820000    299.31778   -16908.185            0     -15028.3    738.19851     32499.33 
 4830000    284.64026   -16859.033            0   -15071.331    197.14357     32676.01 
 4840000    291.90401   -16949.124            0   -15115.801   -449.72027    32398.766 
 4850000    291.00979   -16792.457            0    -14964.75   -488.29336    32726.243 
 4860000    305.18029   -16880.068            0   -14963.362     -260.807    32673.895 
 4870000     300.6118   -16819.815            0   -14931.802   -591.16612    32809.688 
 4880000    287.01891   -16893.296            0   -15090.654    131.43602    33131.966 
 4890000    299.32691   -16827.259            0   -14947.317    505.38952    32412.271 
 4900000    291.26499   -16858.239            0    -15028.93   -755.98615    32828.521 
 4910000    300.32149   -16861.255            0   -14975.066    -54.42836    32988.599 
 4920000    296.02825   -16812.354            0   -14953.129   -361.23737    32794.331 
 4930000    299.12313   -16874.158            0   -14995.495    -924.7806    32777.475 
 4940000    300.76339   -16875.079            0   -14986.114   -24.036424    32967.894 
 4950000    302.80756   -16848.164            0    -14946.36    437.72173    32627.728 
 4960000     304.6199   -16759.336            0   -14846.151    212.68204    32685.614 
 4970000    301.86963   -16849.887            0   -14953.974   -574.44066    33118.022 
 4980000    298.02282   -16838.823            0   -14967.071    81.631773     32849.01 
 4990000    297.85383   -16717.522            0   -14846.832   -183.03014    32609.799 
 5000000    298.37797   -16813.407            0   -14939.424   -66.919812    32427.348 
Loop time of 5240.13 on 128 procs for 5000000 steps with 3108 atoms

Performance: 164.882 ns/day, 0.146 hours/ns, 954.176 timesteps/s
99.3% CPU use with 128 MPI tasks x no OpenMP threads

MPI task timing breakdown:
Section |  min time  |  avg time  |  max time  |%varavg| %total
---------------------------------------------------------------
Pair    | 1151.9     | 1399.9     | 1619.4     | 297.9 | 26.71
Bond    | 0.48611    | 0.58505    | 0.94961    |   9.9 |  0.01
Kspace  | 2148.4     | 2362.1     | 2586.1     | 223.7 | 45.08
Neigh   | 143.27     | 147.26     | 151.5      |  26.1 |  2.81
Comm    | 543.36     | 608.28     | 683.9      | 131.8 | 11.61
Output  | 0.041319   | 0.041816   | 0.042816   |   0.2 |  0.00
Modify  | 531.85     | 637.43     | 685.73     | 140.1 | 12.16
Other   |            | 84.57      |            |       |  1.61

Nlocal:    24.2812 ave 31 max 16 min
Histogram: 4 3 10 7 24 16 28 13 20 3
Nghost:    2880.66 ave 2911 max 2847 min
Histogram: 2 6 11 21 17 24 16 18 6 7
Neighs:    9079.6 ave 12164 max 5036 min
Histogram: 3 3 9 15 15 25 18 19 14 7

Total # of neighbors = 1162189
Ave neighs/atom = 373.935
Ave special neighs/atom = 1.9305
Neighbor list builds = 436337
Dangerous builds = 0
PPPM initialization ...
  extracting TIP4P info from pair style
  using 12-bit tables for long-range coulomb (../kspace.cpp:321)
  G vector (1/distance) = 0.310745
  grid = 30 30 30
  stencil order = 5
  estimated absolute RMS force accuracy = 0.00363332
  estimated relative force accuracy = 1.09416e-05
  using double precision FFTs
  3d grid and FFT values/proc = 2475 256
Setting up Verlet run ...
  Unit style    : real
  Current step  : 0
  Time step     : 2
Per MPI rank memory allocation (min/avg/max) = 8.199 | 8.211 | 8.218 Mbytes
Density 
   1.1286768 
   1.1221102 
   1.1180804 
   1.1057882 
   1.1109858 
   1.1062498 
   1.1190509 
   1.1197769 
   1.1086034 
   1.1365542 
   1.1163181 
   1.1292371 
   1.1202056 
   1.1264649 
   1.1122506 
   1.1267193 
   1.1331545 
    1.121963 
   1.1049906 
   1.1111923 
   1.1289462 
   1.1241033 
   1.1312302 
    1.104744 
    1.129909 
   1.1122471 
   1.1160999 
   1.1098597 
   1.1120906 
   1.1152347 
   1.1207195 
   1.1016138 
   1.1209346 
   1.1203865 
   1.1237855 
   1.1196368 
   1.1138422 
   1.1171374 
   1.1222131 
   1.1146003 
   1.1088168 
    1.112545 
   1.1199426 
   1.1345648 
    1.110837 
   1.1119799 
   1.1151221 
   1.1145422 
   1.1302386 
   1.1160046 
   1.1196489 
   1.1130572 
    1.111035 
   1.1298465 
   1.1200351 
   1.1206969 
    1.128147 
   1.1118068 
    1.114282 
   1.1174703 
   1.1299785 
   1.1178534 
   1.1034629 
   1.1195264 
   1.1264169 
   1.1006337 
   1.1170731 
   1.0995436 
   1.1418056 
   1.1146035 
   1.1205211 
   1.1144076 
   1.1171777 
   1.1173554 
   1.1205656 
   1.1098314 
   1.1292561 
    1.120681 
   1.1212479 
   1.1185316 
   1.1167507 
   1.1128065 
   1.1324213 
   1.1061825 
   1.1158671 
   1.0991017 
   1.1218791 
   1.1089002 
   1.1160097 
   1.1270966 
   1.1144892 
   1.1238457 
   1.1272636 
   1.1428759 
   1.1340638 
   1.1210491 
   1.1083241 
   1.1129849 
   1.1204878 
   1.1360406 
   1.1112673 
   1.1275196 
   1.1197328 
   1.1223469 
   1.1010936 
   1.1124646 
   1.1366161 
    1.118028 
   1.1101189 
   1.1137539 
   1.1304206 
   1.1163068 
    1.121332 
   1.1119553 
   1.1306464 
   1.1085838 
   1.1085179 
   1.0969371 
   1.1097083 
   1.1258133 
   1.1064894 
   1.1405212 
   1.1211721 
   1.1189316 
   1.1235576 
   1.1241839 
   1.1087108 
   1.1090847 
   1.1216804 
    1.117108 
     1.11815 
   1.1194384 
   1.1239947 
   1.1235423 
   1.1171027 
   1.1080075 
   1.1120485 
   1.1333164 
   1.1249939 
    1.123743 
   1.1293019 
   1.1142611 
    1.113796 
    1.105188 
    1.110869 
   1.1064892 
   1.1074397 
   1.1226247 
   1.1175446 
   1.1088974 
   1.1098689 
   1.1098652 
    1.132121 
   1.1177209 
   1.0990917 
   1.1136506 
   1.1078765 
   1.1041214 
   1.1152091 
   1.1123609 
   1.1172575 
   1.1041032 
   1.1189703 
   1.1166799 
   1.1215359 
   1.1112693 
   1.1211664 
   1.1152678 
   1.1261501 
   1.1062407 
   1.1048866 
   1.1223251 
   1.1158449 
   1.1165092 
   1.1281411 
   1.1233673 
   1.1111277 
   1.1117294 
   1.1286425 
   1.1207502 
   1.1111152 
   1.1231328 
   1.1241801 
   1.1171781 
   1.1115674 
   1.1063573 
   1.1264918 
   1.1288711 
   1.1228544 
   1.1087673 
   1.1051071 
   1.1132475 
    1.121447 
   1.1159396 
   1.1353546 
    1.105183 
   1.1062898 
   1.1189924 
   1.1132422 
   1.1213609 
   1.1109997 
   1.1179489 
   1.1245651 
   1.1144327 
   1.1182798 
   1.1150773 
   1.0949417 
   1.1115975 
   1.1205251 
   1.1332093 
   1.1229821 
   1.1356482 
   1.1180889 
   1.1195797 
   1.1200185 
   1.1132733 
   1.1147928 
   1.1224612 
   1.1295098 
   1.1255417 
   1.1151998 
   1.1095857 
   1.1398685 
   1.1351734 
   1.1260242 
   1.1107431 
    1.126925 
   1.1079115 
   1.1209436 
   1.1153885 
   1.1435846 
   1.1130113 
   1.1264731 
   1.1287837 
    1.112734 
   1.1129349 
   1.1081893 
    1.112335 
   1.0990756 
   1.1247766 
   1.1185436 
   1.1191205 
   1.1178573 
   1.1237437 
   1.1160096 
   1.1306769 
   1.1116314 
   1.1059748 
   1.1155696 
   1.1146521 
   1.1087895 
   1.1150445 
   1.1294187 
   1.1114902 
   1.1184817 
   1.1180833 
   1.1223309 
   1.1168488 
   1.1228446 
   1.1244773 
   1.1268954 
   1.1169005 
   1.1138393 
   1.1217084 
   1.1306365 
   1.1139424 
   1.1025312 
   1.1200085 
   1.1039643 
   1.1184095 
   1.1191435 
   1.1195677 
   1.1263228 
   1.1202591 
   1.1110461 
   1.1209043 
   1.1285145 
   1.1178376 
   1.1216964 
   1.1040779 
   1.1140961 
   1.1200697 
   1.1202905 
   1.1341549 
   1.1289978 
   1.1289024 
   1.1236646 
   1.1328015 
   1.1057741 
   1.1265084 
   1.1235785 
   1.1277842 
    1.121185 
    1.122133 
   1.1281317 
   1.1080409 
   1.1299035 
    1.105002 
   1.1100196 
   1.1102828 
   1.1116074 
   1.1121777 
   1.1171196 
   1.0967913 
   1.1185549 
   1.1162109 
   1.1240331 
   1.1062499 
   1.1236311 
   1.1125222 
   1.1169785 
   1.1238602 
   1.1241664 
    1.112081 
   1.1032302 
   1.1225875 
    1.125744 
   1.1296621 
   1.1224415 
   1.1143739 
   1.1294412 
   1.1273046 
   1.1144286 
   1.1189105 
   1.1111922 
   1.1189374 
   1.1164423 
    1.105262 
   1.1153238 
   1.1142116 
   1.1134144 
   1.1230351 
   1.1042954 
   1.1048461 
   1.1029346 
    1.119788 
   1.1132481 
   1.1043152 
   1.1156975 
   1.1166681 
   1.1097734 
   1.1150942 
   1.1387316 
   1.1112247 
   1.1081451 
   1.1115174 
   1.1287754 
   1.1322881 
   1.1156808 
   1.1156347 
   1.1122379 
   1.1202488 
   1.1213525 
   1.1137367 
   1.1240214 
   1.1184932 
   1.1074693 
   1.1241847 
   1.1264074 
   1.1193085 
   1.1142196 
   1.1087072 
   1.1289854 
   1.1153132 
   1.1286983 
   1.0984239 
   1.1216137 
   1.0961922 
   1.1184128 
   1.1321838 
   1.1286607 
   1.0971557 
    1.110228 
   1.1086924 
   1.1310487 
   1.1138097 
   1.1257454 
   1.1141421 
   1.1250549 
   1.1076648 
   1.1162128 
   1.1209918 
   1.1222277 
   1.1178689 
   1.1109521 
   1.1150013 
   1.0995814 
   1.1178452 
   1.1125026 
    1.099354 
   1.1099439 
   1.1115648 
   1.1257901 
   1.1266938 
   1.1357729 
   1.1259748 
   1.1429931 
   1.1225216 
   1.1218537 
   1.1273883 
   1.1252473 
   1.1193285 
   1.1248561 
   1.1181972 
   1.1229416 
   1.1165586 
   1.1264879 
    1.127179 
   1.1252677 
   1.1307199 
   1.1234601 
   1.1236187 
    1.109258 
   1.1127931 
   1.1145764 
   1.1203815 
   1.1065868 
   1.1227873 
   1.1151305 
   1.1193985 
   1.1248458 
   1.1286385 
   1.1118776 
   1.1157482 
   1.1006695 
   1.1367507 
   1.1178196 
    1.113594 
     1.11101 
   1.1072807 
   1.1129267 
   1.1176163 
   1.1120566 
   1.1117536 
   1.1035874 
   1.1077177 
     1.11085 
    1.099073 
   1.1153081 
   1.1144584 
   1.1201281 
   1.1177857 
   1.1131426 
   1.1146694 
   1.1101848 
   1.1173342 
   1.1088919 
   1.1053279 
   1.1026055 
    1.113942 
   1.1159586 
   1.1197839 
    1.119995 
   1.1071756 
   1.1373074 
   1.1108779 
   1.1125738 
   1.1237961 
   1.1011841 
   1.1218022 
   1.1207967 
   1.1250234 
   1.1197737 
   1.1087473 
   1.1113683 
   1.1131434 
   1.1231948 
   1.1186295 
   1.1111051 
   1.1055371 
   1.0896385 
    1.126241 
   1.1132315 
     1.11895 
   1.1310011 
   1.1305809 
   1.1234782 
   1.1143107 
   1.1218653 
   1.1088986 
   1.1300612 
   1.1151056 
   1.1052324 
   1.1194895 
    1.124944 
   1.1227176 
   1.1099419 
   1.1145819 
   1.1083304 
   1.1177307 
   1.1274406 
   1.1196085 
   1.1102785 
   1.1118275 
   1.1232704 
   1.1254578 
   1.1230509 
   1.1238598 
   1.1265667 
   1.1111268 
   1.1227519 
Loop time of 5288.02 on 128 procs for 5000000 steps with 3108 atoms

Performance: 163.388 ns/day, 0.147 hours/ns, 945.533 timesteps/s
99.3% CPU use with 128 MPI tasks x no OpenMP threads

MPI task timing breakdown:
Section |  min time  |  avg time  |  max time  |%varavg| %total
---------------------------------------------------------------
Pair    | 1153.3     | 1398.4     | 1616.6     | 298.3 | 26.44
Bond    | 0.48368    | 0.58279    | 0.96184    |  10.2 |  0.01
Kspace  | 2154.2     | 2360.3     | 2582.8     | 223.9 | 44.64
Neigh   | 142.73     | 146.83     | 150.94     |  26.6 |  2.78
Comm    | 542.54     | 609.8      | 685.3      | 136.1 | 11.53
Output  | 0.017315   | 0.021824   | 0.040418   |   1.8 |  0.00
Modify  | 583.46     | 688.47     | 736.92     | 135.1 | 13.02
Other   |            | 83.65      |            |       |  1.58

Nlocal:    24.2812 ave 31 max 15 min
Histogram: 1 1 4 16 9 42 31 7 8 9
Nghost:    2874.9 ave 2902 max 2851 min
Histogram: 4 13 15 14 23 24 16 14 2 3
Neighs:    9034.74 ave 13062 max 5629 min
Histogram: 3 4 14 32 28 21 14 8 2 2

Total # of neighbors = 1156447
Ave neighs/atom = 372.087
Ave special neighs/atom = 1.9305
Neighbor list builds = 436460
Dangerous builds = 0
Changing box ...
  orthogonal box = (0.658435 0.658435 0.658435) to (32.6522 32.6032 32.6032)
  orthogonal box = (0.658435 0.658435 0.658435) to (32.6522 32.6522 32.6032)
  orthogonal box = (0.658435 0.658435 0.658435) to (32.6522 32.6522 32.6522)
PPPM initialization ...
  extracting TIP4P info from pair style
  using 12-bit tables for long-range coulomb (../kspace.cpp:321)
  G vector (1/distance) = 0.310508
  grid = 30 30 30
  stencil order = 5
  estimated absolute RMS force accuracy = 0.00366907
  estimated relative force accuracy = 1.10493e-05
  using double precision FFTs
  3d grid and FFT values/proc = 2475 256
Setting up Verlet run ...
  Unit style    : real
  Current step  : 0
  Time step     : 0.001
Per MPI rank memory allocation (min/avg/max) = 8.199 | 8.211 | 8.218 Mbytes
Density 
   1.1175985 
   1.1175985 
Loop time of 7.85893 on 128 procs for 10000 steps with 3108 atoms

Performance: 0.110 ns/day, 218.304 hours/ns, 1272.438 timesteps/s
99.4% CPU use with 128 MPI tasks x no OpenMP threads

MPI task timing breakdown:
Section |  min time  |  avg time  |  max time  |%varavg| %total
---------------------------------------------------------------
Pair    | 1.1533     | 2.0699     | 3.0458     |  23.0 | 26.34
Bond    | 0.00071161 | 0.00088018 | 0.0015811  |   0.0 |  0.01
Kspace  | 2.9008     | 3.8592     | 4.7407     |  16.4 | 49.11
Neigh   | 0          | 0          | 0          |   0.0 |  0.00
Comm    | 1.0243     | 1.1156     | 1.1897     |   3.7 | 14.20
Output  | 4.0626e-05 | 4.9583e-05 | 0.00010041 |   0.0 |  0.00
Modify  | 0.62633    | 0.70174    | 0.75267    |   3.7 |  8.93
Other   |            | 0.1116     |            |       |  1.42

Nlocal:    24.2812 ave 32 max 14 min
Histogram: 1 1 5 12 13 39 32 13 7 5
Nghost:    2860.58 ave 2889 max 2832 min
Histogram: 2 6 17 15 22 24 18 17 5 2
Neighs:    8993.33 ave 13411 max 5237 min
Histogram: 2 4 11 33 32 22 16 4 3 1

Total # of neighbors = 1151146
Ave neighs/atom = 370.382
Ave special neighs/atom = 1.9305
Neighbor list builds = 0
Dangerous builds = 0
PPPM initialization ...
  extracting TIP4P info from pair style
  using 12-bit tables for long-range coulomb (../kspace.cpp:321)
  G vector (1/distance) = 0.310508
  grid = 30 30 30
  stencil order = 5
  estimated absolute RMS force accuracy = 0.00366907
  estimated relative force accuracy = 1.10493e-05
  using double precision FFTs
  3d grid and FFT values/proc = 2475 256
Setting up Verlet run ...
  Unit style    : real
  Current step  : 10000
  Time step     : 0.01
Per MPI rank memory allocation (min/avg/max) = 8.199 | 8.211 | 8.218 Mbytes
Density 
   1.1175985 
   1.1175985 
Loop time of 7.89269 on 128 procs for 10000 steps with 3108 atoms

Performance: 1.095 ns/day, 21.924 hours/ns, 1266.995 timesteps/s
99.4% CPU use with 128 MPI tasks x no OpenMP threads

MPI task timing breakdown:
Section |  min time  |  avg time  |  max time  |%varavg| %total
---------------------------------------------------------------
Pair    | 1.395      | 2.0755     | 2.9802     |  21.7 | 26.30
Bond    | 0.00070311 | 0.0009025  | 0.002198   |   0.0 |  0.01
Kspace  | 3.0007     | 3.8666     | 4.5411     |  15.4 | 48.99
Neigh   | 0.0013018  | 0.0013259  | 0.001358   |   0.0 |  0.02
Comm    | 1.0089     | 1.1032     | 1.1675     |   3.6 | 13.98
Output  | 2.8523e-05 | 3.7824e-05 | 7.1984e-05 |   0.0 |  0.00
Modify  | 0.65778    | 0.73369    | 0.78589    |   3.5 |  9.30
Other   |            | 0.1114     |            |       |  1.41

Nlocal:    24.2812 ave 32 max 16 min
Histogram: 2 6 5 28 13 33 20 4 11 6
Nghost:    2864.23 ave 2902 max 2838 min
Histogram: 5 15 22 15 26 25 11 6 1 2
Neighs:    8990.84 ave 12453 max 6364 min
Histogram: 6 15 30 12 17 11 16 11 7 3

Total # of neighbors = 1150827
Ave neighs/atom = 370.279
Ave special neighs/atom = 1.9305
Neighbor list builds = 4
Dangerous builds = 0
PPPM initialization ...
  extracting TIP4P info from pair style
  using 12-bit tables for long-range coulomb (../kspace.cpp:321)
  G vector (1/distance) = 0.310508
  grid = 30 30 30
  stencil order = 5
  estimated absolute RMS force accuracy = 0.00366907
  estimated relative force accuracy = 1.10493e-05
  using double precision FFTs
  3d grid and FFT values/proc = 2475 256
Setting up Verlet run ...
  Unit style    : real
  Current step  : 20000
  Time step     : 0.1
Per MPI rank memory allocation (min/avg/max) = 8.199 | 8.211 | 8.218 Mbytes
Density 
   1.1175985 
   1.1175985 
Loop time of 8.47582 on 128 procs for 10000 steps with 3108 atoms

Performance: 10.194 ns/day, 2.354 hours/ns, 1179.826 timesteps/s
99.3% CPU use with 128 MPI tasks x no OpenMP threads

MPI task timing breakdown:
Section |  min time  |  avg time  |  max time  |%varavg| %total
---------------------------------------------------------------
Pair    | 1.4564     | 2.0885     | 2.8105     |  18.2 | 24.64
Bond    | 0.00070782 | 0.00088178 | 0.0015874  |   0.0 |  0.01
Kspace  | 3.5153     | 4.2289     | 4.8016     |  12.5 | 49.89
Neigh   | 0.013466   | 0.013855   | 0.014107   |   0.2 |  0.16
Comm    | 1.1097     | 1.2111     | 1.279      |   3.5 | 14.29
Output  | 3.4795e-05 | 4.2753e-05 | 8.7834e-05 |   0.0 |  0.00
Modify  | 0.73958    | 0.81023    | 0.87206    |   3.3 |  9.56
Other   |            | 0.1223     |            |       |  1.44

Nlocal:    24.2812 ave 32 max 15 min
Histogram: 1 5 12 8 22 36 16 16 5 7
Nghost:    2858.66 ave 2882 max 2836 min
Histogram: 3 2 16 30 21 18 14 8 13 3
Neighs:    8992.11 ave 12700 max 5704 min
Histogram: 5 6 20 17 23 27 13 12 1 4

Total # of neighbors = 1150990
Ave neighs/atom = 370.331
Ave special neighs/atom = 1.9305
Neighbor list builds = 44
Dangerous builds = 0
PPPM initialization ...
  extracting TIP4P info from pair style
  using 12-bit tables for long-range coulomb (../kspace.cpp:321)
  G vector (1/distance) = 0.310508
  grid = 30 30 30
  stencil order = 5
  estimated absolute RMS force accuracy = 0.00366907
  estimated relative force accuracy = 1.10493e-05
  using double precision FFTs
  3d grid and FFT values/proc = 2475 256
Setting up Verlet run ...
  Unit style    : real
  Current step  : 30000
  Time step     : 0.2
Per MPI rank memory allocation (min/avg/max) = 8.199 | 8.211 | 8.218 Mbytes
Density 
   1.1175985 
   1.1175985 
Loop time of 7.86979 on 128 procs for 10000 steps with 3108 atoms

Performance: 21.957 ns/day, 1.093 hours/ns, 1270.682 timesteps/s
99.4% CPU use with 128 MPI tasks x no OpenMP threads

MPI task timing breakdown:
Section |  min time  |  avg time  |  max time  |%varavg| %total
---------------------------------------------------------------
Pair    | 1.4277     | 2.0939     | 2.7575     |  17.8 | 26.61
Bond    | 0.00070584 | 0.00088862 | 0.0012887  |   0.0 |  0.01
Kspace  | 3.1886     | 3.8394     | 4.4846     |  13.0 | 48.79
Neigh   | 0.028138   | 0.028472   | 0.028832   |   0.1 |  0.36
Comm    | 1.0141     | 1.0963     | 1.162      |   3.4 | 13.93
Output  | 2.3413e-05 | 3.0647e-05 | 6.3619e-05 |   0.0 |  0.00
Modify  | 0.62689    | 0.69765    | 0.74691    |   3.6 |  8.86
Other   |            | 0.1131     |            |       |  1.44

Nlocal:    24.2812 ave 35 max 15 min
Histogram: 1 6 11 18 26 34 21 9 1 1
Nghost:    2870.14 ave 2910 max 2843 min
Histogram: 6 13 28 18 24 16 10 7 5 1
Neighs:    8995.45 ave 13415 max 5476 min
Histogram: 2 9 18 26 29 19 15 7 2 1

Total # of neighbors = 1151418
Ave neighs/atom = 370.469
Ave special neighs/atom = 1.9305
Neighbor list builds = 90
Dangerous builds = 0
PPPM initialization ...
  extracting TIP4P info from pair style
  using 12-bit tables for long-range coulomb (../kspace.cpp:321)
  G vector (1/distance) = 0.310508
  grid = 30 30 30
  stencil order = 5
  estimated absolute RMS force accuracy = 0.00366907
  estimated relative force accuracy = 1.10493e-05
  using double precision FFTs
  3d grid and FFT values/proc = 2475 256
Setting up Verlet run ...
  Unit style    : real
  Current step  : 40000
  Time step     : 0.5
Per MPI rank memory allocation (min/avg/max) = 8.199 | 8.211 | 8.218 Mbytes
Density 
   1.1175985 
   1.1175985 
Loop time of 7.96752 on 128 procs for 10000 steps with 3108 atoms

Performance: 54.220 ns/day, 0.443 hours/ns, 1255.096 timesteps/s
99.3% CPU use with 128 MPI tasks x no OpenMP threads

MPI task timing breakdown:
Section |  min time  |  avg time  |  max time  |%varavg| %total
---------------------------------------------------------------
Pair    | 1.5263     | 2.1132     | 2.71       |  16.0 | 26.52
Bond    | 0.00070505 | 0.00086935 | 0.0012931  |   0.0 |  0.01
Kspace  | 3.2081     | 3.837      | 4.3965     |  11.8 | 48.16
Neigh   | 0.070003   | 0.070774   | 0.071469   |   0.1 |  0.89
Comm    | 1.0161     | 1.0982     | 1.1561     |   3.3 | 13.78
Output  | 2.5848e-05 | 3.5161e-05 | 8.9487e-05 |   0.0 |  0.00
Modify  | 0.65141    | 0.72547    | 0.77522    |   3.5 |  9.11
Other   |            | 0.1219     |            |       |  1.53

Nlocal:    24.2812 ave 34 max 16 min
Histogram: 2 10 13 23 17 35 17 9 0 2
Nghost:    2864.52 ave 2907 max 2843 min
Histogram: 15 26 22 18 18 17 5 3 3 1
Neighs:    8991.17 ave 12873 max 6090 min
Histogram: 7 10 17 20 24 26 15 6 2 1

Total # of neighbors = 1150870
Ave neighs/atom = 370.293
Ave special neighs/atom = 1.9305
Neighbor list builds = 221
Dangerous builds = 0
PPPM initialization ...
  extracting TIP4P info from pair style
  using 12-bit tables for long-range coulomb (../kspace.cpp:321)
  G vector (1/distance) = 0.310508
  grid = 30 30 30
  stencil order = 5
  estimated absolute RMS force accuracy = 0.00366907
  estimated relative force accuracy = 1.10493e-05
  using double precision FFTs
  3d grid and FFT values/proc = 2475 256
Setting up Verlet run ...
  Unit style    : real
  Current step  : 0
  Time step     : 2
Per MPI rank memory allocation (min/avg/max) = 8.199 | 8.211 | 8.218 Mbytes
Density 
   1.1175985 
   1.1175985 
   1.1175985 
   1.1175985 
   1.1175985 
   1.1175985 
   1.1175985 
   1.1175985 
   1.1175985 
   1.1175985 
   1.1175985 
Loop time of 88.5905 on 128 procs for 100000 steps with 3108 atoms

Performance: 195.055 ns/day, 0.123 hours/ns, 1128.790 timesteps/s
99.3% CPU use with 128 MPI tasks x no OpenMP threads

MPI task timing breakdown:
Section |  min time  |  avg time  |  max time  |%varavg| %total
---------------------------------------------------------------
Pair    | 18.107     | 21.602     | 25.983     |  38.5 | 24.38
Bond    | 0.0073558  | 0.0088623  | 0.01491    |   1.2 |  0.01
Kspace  | 38.56      | 42.89      | 46.523     |  27.7 | 48.41
Neigh   | 2.9264     | 2.9616     | 2.9987     |   1.2 |  3.34
Comm    | 11.184     | 12.162     | 12.959     |  12.4 | 13.73
Output  | 0.00031362 | 0.00038804 | 0.00083641 |   0.0 |  0.00
Modify  | 7.0364     | 7.7977     | 8.3108     |  10.9 |  8.80
Other   |            | 1.168      |            |       |  1.32

Nlocal:    24.2812 ave 32 max 15 min
Histogram: 2 1 7 10 34 30 10 22 9 3
Nghost:    2862.05 ave 2886 max 2832 min
Histogram: 3 6 8 16 17 19 22 21 10 6
Neighs:    8993.95 ave 12112 max 4970 min
Histogram: 2 2 7 8 27 32 22 16 6 6

Total # of neighbors = 1151225
Ave neighs/atom = 370.407
Ave special neighs/atom = 1.9305
Neighbor list builds = 8610
Dangerous builds = 0
WARNING: New thermo_style command, previous thermo_modify settings will be lost (../output.cpp:705)
PPPM initialization ...
  extracting TIP4P info from pair style
  using 12-bit tables for long-range coulomb (../kspace.cpp:321)
  G vector (1/distance) = 0.310508
  grid = 30 30 30
  stencil order = 5
  estimated absolute RMS force accuracy = 0.00366907
  estimated relative force accuracy = 1.10493e-05
  using double precision FFTs
  3d grid and FFT values/proc = 2475 256
Setting up Verlet run ...
  Unit style    : real
  Current step  : 0
  Time step     : 2
[...]
98190000    292.26031     297.9966    -383.5657   -8.3816109   -16792.817    1835.5604   -14957.257 
98200000    295.24405    297.73784    63.796631   -80.556076   -16815.584       1854.3   -14961.284 
98210000    291.25622    298.01598   -1047.2218    7.0327302   -16906.593    1829.2542   -15077.338 
98220000    291.14316    298.09944    292.16353   -50.878882    -16852.04    1828.5441   -15023.496 
98230000    303.77152    297.90872   -10.712664   -21.852977   -16863.357    1907.8573   -14955.499 
98240000    299.00735    298.02854    -344.7856    5.7331242   -16878.612    1877.9356   -15000.677 
98250000    299.59168    297.50855    337.83492   -28.066139   -16915.061    1881.6056   -15033.455 
98260000    291.01727     297.7683   -200.72227   -80.631217    -16862.36    1827.7534   -15034.607 
98270000     297.7075    298.39269     -385.723   -27.418821   -16778.756    1869.7719   -14908.984 
98280000    298.16592    298.06049   -919.79522   -6.1080766   -16901.844     1872.651   -15029.193 
98290000    295.56752    297.95987    412.32651   -1.8650805   -16756.853    1856.3316   -14900.521 
98300000    288.92803    298.04295   -83.977483   -30.617775   -16884.225    1814.6318   -15069.593 
98310000    291.04795    297.96038    111.91375    105.80373   -16806.981    1827.9461   -14979.035 
98320000    301.14702    297.40169    -184.8868    -9.833152    -16853.56    1891.3739   -14962.186 
98330000    291.93948    298.00139   -326.48925    40.981084    -16829.63    1833.5454   -14996.085 
98340000    298.68474    297.98477    -149.4881   -81.380303    -16791.85    1875.9094    -14915.94 
98350000     299.2851    297.78662   -281.26582   -23.781751   -16836.357      1879.68   -14956.677 
98360000    295.12743     297.5123   -324.22463   -4.0799556   -16798.641    1853.5675   -14945.073 
98370000    306.71055    297.82082    613.60142    17.142955   -16847.844    1926.3161   -14921.528 
98380000    310.24504    298.00883    809.48689   -102.13432   -16874.514    1948.5147   -14925.999 
98390000     310.5483    297.95083   -27.681389    -68.69422   -16927.133    1950.4193   -14976.714 
98400000    299.96377    298.18733   -29.442854    36.321167    -16932.97    1883.9425   -15049.027 
98410000    304.83297    298.03053    248.79882    24.927239   -16842.733    1914.5239   -14928.209 
98420000    293.59087    297.74766   -504.37284   -102.26419   -16776.882    1843.9171   -14932.965 
98430000    294.07431    297.44227    -84.09911   -39.666433   -16890.739    1846.9534   -15043.786 
98440000    304.38214    298.22524    17.387161    44.349137   -16824.516    1911.6923   -14912.824 
98450000    301.59385    297.74371    172.01124   -31.817024   -16752.421    1894.1803    -14858.24 
98460000    305.30068    298.01838     796.3741   -13.213245   -16829.915    1917.4613   -14912.454 
98470000    299.22542    297.85094    222.51784   -82.561315   -16930.508    1879.3052   -15051.203 
98480000     295.1719    298.19088   -171.65274    7.5834691   -16770.111    1853.8468   -14916.265 
98490000    298.57841    298.15194   -248.82085    97.239396   -16844.352    1875.2416    -14969.11 
98500000    290.99435    298.29084   -432.15183    100.87854   -16795.167    1827.6094   -14967.557 
98510000    303.01058    297.82688   -140.77217   -65.618734   -16795.565    1903.0782   -14892.487 
98520000    295.65726    297.83344    327.01178    50.905229   -16848.223    1856.8952   -14991.328 
98530000    301.10993    297.87786    125.24587   -16.132154   -16894.163     1891.141   -15003.022 
98540000    296.98157    297.89933     1017.295    47.885343   -16854.564    1865.2126   -14989.351 
98550000    299.65604    298.08127   -319.68452    6.7922738   -16824.023    1882.0097   -14942.014 
98560000    306.28359    298.30098    312.13389   -48.094032   -16824.714    1923.6345    -14901.08 
98570000    296.90121    297.80918    157.12034   -19.165717   -16906.095    1864.7079   -15041.387 
98580000    297.29475    298.08703   -735.77381     73.32029   -16918.909    1867.1795    -15051.73 
98590000    295.08856    298.02039    435.71746    11.200235   -16854.751    1853.3234   -15001.428 
98600000    309.40381    298.12166   -210.47231   -81.615838   -16871.102    1943.2313    -14927.87 
98610000    307.95538     298.1735   -224.36608    12.869241   -16863.707    1934.1343   -14929.572 
98620000    293.29651     297.8947    -622.1644   -11.058896   -16911.415    1842.0683   -15069.347 
98630000    296.85886    298.02451    308.51627  -0.33999708   -16927.645    1864.4419   -15063.203 
98640000    296.91162    297.68828    130.04891   -11.468643   -16877.143    1864.7732    -15012.37 
98650000    297.10324    298.26048   -49.055118   -39.056541   -16805.411    1865.9767   -14939.435 
98660000    294.75463    298.59507   -242.01013     32.36673   -16850.116    1851.2261    -14998.89 
98670000    301.11214    298.10328    204.00467   -89.075954   -16835.976    1891.1549   -14944.821 
98680000    312.59679    298.00041    526.92353   -35.126456   -16882.385     1963.285     -14919.1 
98690000    286.89369    298.08861    20.648611     2.413019   -16960.031     1801.855   -15158.176 
98700000    300.28041    297.69842    457.17855    52.830665   -16888.572    1885.9312   -15002.641 
98710000    298.13612    297.93334    437.60977   0.60548735   -16945.557    1872.4638   -15073.093 
98720000    296.55596    298.02951    47.039369     87.71913   -16803.249    1862.5395   -14940.709 
98730000    294.68266    297.89947    312.05229    11.099881   -16768.343    1850.7741   -14917.569 
98740000    299.74447    297.89394     71.42495    54.548806   -16828.258    1882.5652   -14945.693 
98750000    303.65052    298.15653    297.90857   -90.362581    -16922.59    1907.0973   -15015.493 
98760000    296.64013    297.93525    74.881829    43.381629   -16915.052    1863.0681   -15051.984 
98770000     307.6766    297.84188   -9.4154217    78.714871   -16861.993    1932.3834   -14929.609 
98780000    293.16152    297.78314   -224.90421   -63.068655   -16856.761    1841.2205    -15015.54 
98790000    301.14849    298.06792    366.94727   -54.411027   -16888.804    1891.3832   -14997.421 
98800000    293.81133    298.14822   -470.99912    129.49224    -16866.78    1845.3017   -15021.478 
98810000    309.49964    298.00468   -214.32453    38.362543   -16880.057    1943.8332   -14936.224 
98820000    297.34792    298.12544    293.61081   -19.782998   -16908.126    1867.5135   -15040.613 
98830000    297.86982    298.22461   -238.41029    24.841091   -16911.354    1870.7913   -15040.563 
98840000    289.50881    298.26227   -13.010898    119.76496   -16888.143    1818.2794   -15069.864 
98850000    305.70792    297.85595    240.34837   -50.879293   -16850.923     1920.019   -14930.904 
98860000    296.11401    297.99745    327.97182    68.258228   -16788.118    1859.7638   -14928.354 
98870000    287.94916    298.32578    299.85498    36.828978   -16939.248    1808.4839   -15130.764 
98880000    297.38793    297.92159    78.572249     85.53396   -16806.752    1867.7648   -14938.988 
98890000    297.06662    297.38239   -560.74559    5.2869086   -16811.156    1865.7467   -14945.409 
98900000    307.09665    298.12963   -246.71184   -27.987186   -16853.143     1928.741   -14924.402 
98910000    286.32756    297.39126   -256.16141    64.802953   -16871.203    1798.2993   -15072.903 
98920000    296.32385    298.12551    225.31771    13.078033   -16833.609    1861.0817   -14972.528 
98930000    297.22112    298.05377   -44.342283     100.9998   -16854.728    1866.7171   -14988.011 
98940000    289.44684    297.86139   -150.23948   -18.910175   -16852.875    1817.8902   -15034.985 
98950000    302.74823    297.79668   -66.118992   -2.7988632   -16806.647    1901.4305   -14905.217 
98960000    305.82115    298.05209    114.73462     -17.1576   -16948.273    1920.7302   -15027.543 
98970000    293.09478    297.72876    199.71599   -50.695389   -16948.331    1840.8013   -15107.529 
98980000    284.35006     298.0492   -78.926172   -1.7771118   -16843.879    1785.8795   -15057.999 
98990000     297.7471    298.03072   -100.29276    42.766318   -16941.439    1870.0206   -15071.418 
99000000    295.61647    297.79504   -297.85987    12.508053   -16953.196     1856.639   -15096.557 
99010000    297.27448    298.19171   -79.192644    17.004515   -16880.607    1867.0522   -15013.555 
99020000    294.96116    298.24554    285.22911    41.867473   -16844.929    1852.5233   -14992.405 
99030000    296.05874    297.97813     59.78528   -11.852401   -16835.686    1859.4167    -14976.27 
99040000    300.98116    297.95945    -555.3288   -73.239873   -16850.877    1890.3323   -14960.545 
99050000    292.14508    298.31502    4.8961236   -4.7472881   -16733.181    1834.8367   -14898.344 
99060000    295.17864    297.60247    214.99953    42.055526   -16916.704    1853.8892   -15062.815 
99070000    305.08539    297.62342    214.09813    30.247524   -16846.313    1916.1092   -14930.204 
99080000    294.81387    298.03538   -605.50286   -20.698186   -16804.575    1851.5982   -14952.977 
99090000    298.74526    298.42378   -522.00229    78.707218    -16900.35    1876.2895   -15024.061 
99100000    295.85547    297.79398   -295.77774   -11.545717   -16803.193    1858.1401   -14945.053 
99110000    300.77711    298.18706   -705.42476   -18.331422   -16957.697    1889.0507   -15068.646 
99120000     296.4693    297.83302   -63.063929    -46.12552   -16861.434    1861.9952   -14999.439 
99130000    297.19319    297.74789    668.78721   -65.805309   -16793.522    1866.5417    -14926.98 
99140000    298.08121    297.95399    323.38687    101.56434   -16784.212    1872.1189   -14912.093 
99150000    296.12108     298.3341    108.54534   -86.601571   -16946.053    1859.8082   -15086.245 
99160000    291.83036    298.37917   -371.77509    24.018365   -16886.441      1832.86   -15053.581 
99170000    300.77541    298.17985     143.9902    92.498924   -16884.687    1889.0401   -14995.647 
99180000    308.88356    298.19298   -589.18663   -31.485484     -16799.6    1939.9638   -14859.636 
99190000    295.32785    297.87925   -665.04199   -125.71109   -16888.897    1854.8263    -15034.07 
99200000    284.22288     297.8426   -124.44124    1.7615681    -16957.29    1785.0808   -15172.209 
99210000    299.82835    297.43726   -99.612754    21.598418   -16873.312    1883.0919    -14990.22 
99220000    295.12864    298.30528    492.95946   -12.799005   -16846.351    1853.5751   -14992.776 
99230000    296.72634    298.40457    80.670438    114.59026   -16816.396    1863.6096   -14952.787 
99240000    305.04089    297.50284   -36.735364    49.762234   -16770.053    1915.8297   -14854.223 
99250000    296.70406     298.0951    -20.17704     3.081188   -16926.075    1863.4697   -15062.606 
99260000    298.46085    297.70484    22.616779    14.725975   -16915.555    1874.5033   -15041.052 
99270000    297.82606    297.82917   -6.2096686    65.748967   -16890.489    1870.5165   -15019.973 
99280000    298.06871    297.95517    1180.9014   -65.545752   -16911.489    1872.0404   -15039.449 
99290000    298.42011    297.94397   -327.19731    89.022318    -16938.06    1874.2474   -15063.813 
99300000     291.8347    298.54079    395.84335   -42.956846   -16838.148    1832.8873   -15005.261 
99310000    303.98298    297.68897   -67.869542   -42.658006   -16860.825    1909.1854    -14951.64 
99320000     291.0275    297.41775   -785.34017   -82.767862   -16926.423    1827.8177   -15098.605 
99330000    295.39306    298.08602    362.07861    3.4413629   -16859.674    1855.2358   -15004.438 
99340000    294.16466    298.10922   -296.37456   -7.1618002   -16881.104    1847.5208   -15033.584 
99350000     287.6709     298.0192    122.19566   -89.430608   -16845.138    1806.7363   -15038.402 
99360000    295.89661    298.15891    205.84827    27.133638    -16933.14    1858.3984   -15074.741 
99370000    297.22478      298.059   -583.74271    28.463368   -16901.658    1866.7401   -15034.918 
99380000    296.12923    298.06124    108.97955   -15.635852    -16813.08    1859.8594    -14953.22 
99390000    300.41459    297.69826     815.7159    14.904199   -16757.391    1886.7739   -14870.617 
99400000    297.87443    298.01888    -211.4841   -32.971096    -16849.15    1870.8203   -14978.329 
99410000    302.56313    298.09451    159.72791    -50.39939    -16917.98    1900.2679   -15017.712 
99420000    300.98155     297.9434    252.85729   0.39727325   -16772.635    1890.3347     -14882.3 
99430000    301.53433    297.76531   -38.470502    53.228669   -16767.401    1893.8065   -14873.595 
99440000    291.66904    297.69639   -972.11869    16.947704   -16998.764    1831.8469   -15166.918 
99450000    307.55292    297.55769   -1056.6613   -33.638036   -16941.687    1931.6067   -15010.081 
99460000    295.31843    298.25068    449.60591    2.2614498   -16820.367    1854.7671     -14965.6 
99470000    298.63929     297.6842    581.00444    8.5597745   -16856.103     1875.624   -14980.479 
99480000    294.78775    298.27343    10.684036    70.687581   -16905.285    1851.4341   -15053.851 
99490000    293.02927    297.76654   -271.81882    62.936781   -16918.168    1840.3899   -15077.778 
99500000    298.07322    298.09481   -108.15826     -45.9807     -16884.5    1872.0688   -15012.431 
99510000     291.1218     298.1649   -435.58272    18.483074   -16863.774    1828.4099   -15035.364 
99520000    298.83589    297.22299    450.81473   -49.473477   -16793.578    1876.8588   -14916.719 
99530000    303.29948    298.68504    284.58854   -80.972581   -16775.717    1904.8926   -14870.825 
99540000    299.70228    298.40347    136.46642    5.6049527    -16898.12    1882.3002    -15015.82 
99550000    290.88287    298.37155   -466.70797    40.987657    -16890.09    1826.9093   -15063.181 
99560000    305.51594    298.16577    464.48316   -7.1963625   -16793.452    1918.8133   -14874.639 
99570000     299.7291    297.74454    246.00407    82.504927    -16860.51    1882.4686   -14978.041 
99580000    295.20855    297.83215   -375.64808    45.169891   -16880.146     1854.077   -15026.069 
99590000    292.22867    298.49498     448.3208    39.251688   -16818.183    1835.3617   -14982.822 
99600000    299.16465    297.74148   -200.98719    98.922534   -16871.924    1878.9235       -14993 
99610000    303.58101    297.88682    318.41892   -29.237131   -16761.528    1906.6608   -14854.867 
99620000    295.02502    298.11488    657.47906   -30.699187   -16805.727    1852.9243   -14952.803 
99630000    298.07245    298.11289    521.76066   -53.910433   -16815.936    1872.0639   -14943.872 
99640000    298.55827    297.74218   -783.92532    98.286756   -16833.863    1875.1151   -14958.748 
99650000    292.57623    298.14297    91.722901    51.988664   -16797.039    1837.5446   -14959.495 
99660000    297.30548    298.01631    286.86967    -39.72844   -16863.165    1867.2469   -14995.918 
99670000    299.05551    297.96917    177.09237    9.9387394   -16855.647    1878.2381   -14977.408 
99680000    302.35921    297.94035     91.56934    18.112178   -16884.889    1898.9872   -14985.901 
99690000    293.49589    298.12172   -559.63423   -45.679284   -16849.378    1843.3206   -15006.057 
99700000    300.33089    298.12408    322.80806    -42.55863   -16801.454    1886.2482   -14915.206 
99710000    294.62698    298.01124   -362.45407    -12.72282   -16894.961    1850.4244   -15044.537 
99720000    296.36783    297.85366    -77.60253   -0.8956526   -16881.077    1861.3579   -15019.719 
99730000    293.66854    298.23291   -307.55356   -56.074349    -16858.15    1844.4049   -15013.745 
99740000    302.78757    298.18219    707.70954     77.78461   -16969.868    1901.6775    -15068.19 
99750000    297.12785    297.75819   -182.01687    32.206543   -16871.102    1866.1313   -15004.971 
99760000    295.62822    298.10582   -774.65479   -25.249376   -16910.498    1856.7128   -15053.785 
99770000    299.75608    297.81261    65.437599   -40.872273     -16858.9    1882.6381   -14976.262 
99780000    297.38594    297.94798   -301.56329    4.2462154    -16836.39    1867.7523   -14968.638 
99790000    302.79349    298.14494   -25.905826     60.28924   -16746.354    1901.7147    -14844.64 
99800000    303.39163    298.27166    92.373316    28.519818   -16732.455    1905.4714   -14826.984 
99810000    302.53819    298.23474    22.249154    1.9569223    -16870.14    1900.1113   -14970.029 
99820000    296.27939    297.71656   -119.19285   -40.158548   -16854.996    1860.8025   -14994.194 
99830000    296.95692    297.88271    496.13378    37.712108   -16754.627    1865.0578   -14889.569 
99840000    293.13215    298.24407    171.53421    5.7286781   -16790.861    1841.0361   -14949.825 
99850000    291.93388    297.85111   -546.81173    110.06535   -16929.562    1833.5103   -15096.051 
99860000    296.92376    298.52038   -186.62297   -41.602778   -16745.481    1864.8495   -14880.632 
99870000    292.94152    297.58024   -260.37169   -97.130487   -16810.759    1839.8388   -14970.921 
99880000    295.00449     297.5165   -919.76045    14.194563   -16857.241    1852.7954   -15004.445 
99890000     292.2117    297.95691  -0.61713995   -56.976388   -16916.265    1835.2551    -15081.01 
99900000    293.61773    297.96992   -457.53467    17.469819   -16875.032    1844.0858   -15030.946 
99910000    294.95459    298.06062    674.07799   -58.769841   -16901.793     1852.482   -15049.311 
99920000    301.79678    297.79911   -256.98365     18.98487   -16880.748    1895.4548   -14985.293 
99930000     295.9241    298.18574   -58.102187    9.0625949   -16785.438    1858.5711   -14926.867 
99940000    307.58982    298.17448   -726.20362    2.7325645   -16786.769    1931.8384   -14854.931 
99950000    306.66378    298.10423    601.65659   -75.658409   -16910.522    1926.0223     -14984.5 
99960000    301.19152    297.84413    809.42324    93.744438   -16856.579    1891.6534   -14964.925 
99970000    301.39735    298.00668     22.83396     5.350023   -16882.413    1892.9462   -14989.467 
99980000    295.24304    297.79246   -245.21393   -58.300026    -16865.94    1854.2936   -15011.646 
99990000     302.2458    297.93235   -58.112582   -40.486627   -16806.292    1898.2749   -14908.017 
100000000    300.75629     297.9572    440.82773    97.790177   -16917.843    1888.9199   -15028.923 
Loop time of 92662.1 on 128 procs for 100000000 steps with 3108 atoms

Performance: 186.484 ns/day, 0.129 hours/ns, 1079.190 timesteps/s
99.3% CPU use with 128 MPI tasks x no OpenMP threads

MPI task timing breakdown:
Section |  min time  |  avg time  |  max time  |%varavg| %total
---------------------------------------------------------------
Pair    | 19595      | 23355      | 26788      |1174.7 | 25.20
Bond    | 8.865      | 10.558     | 16.17      |  41.9 |  0.01
Kspace  | 39388      | 42837      | 46524      | 870.7 | 46.23
Neigh   | 2924.2     | 2948.8     | 2975.9     |  23.3 |  3.18
Comm    | 11481      | 12340      | 13045      | 334.9 | 13.32
Output  | 4.9956     | 87.635     | 103.17     | 167.9 |  0.09
Modify  | 8900.4     | 9559.1     | 10184      | 332.6 | 10.32
Other   |            | 1523       |            |       |  1.64

Nlocal:    24.2812 ave 34 max 15 min
Histogram: 1 3 15 21 30 25 18 12 2 1
Nghost:    2865.61 ave 2895 max 2830 min
Histogram: 2 4 15 10 18 15 33 18 9 4
Neighs:    8991.92 ave 13719 max 5089 min
Histogram: 1 5 17 26 36 17 15 6 4 1

Total # of neighbors = 1150966
Ave neighs/atom = 370.324
Ave special neighs/atom = 1.9305
Neighbor list builds = 8646008
Dangerous builds = 0

JOB STATISTICS
==============
Job ID: 2423593
Cluster: snellius
User/Group: phabibi/phabibi
State: COMPLETED (exit code 0)
Nodes: 1
Cores per node: 128
CPU Utilized: 152-06:02:25
CPU Efficiency: 99.29% of 153-08:00:00 core-walltime
Job Wall-clock time: 1-04:45:00
Memory Utilized: 20.87 GB (estimated maximum)
Memory Efficiency: 9.32% of 224.00 GB (1.75 GB/core)
