3152
Atoms. Timestep: 0
O 16.305 20.46 28.2878
H 17.0967 19.9884 28.029
H 16.5847 21.3718 28.3693
O 8.53798 31.067 13.7671
H 9.26144 31.6078 14.0839
H 7.81794 31.2523 14.37
O 18.2216 20.4833 8.0564
H 18.4462 21.0405 8.80161
H 17.5817 20.9932 7.5597
O 5.68551 32.6931 23.7682
H 5.62332 1.23663 24.0344
H 6.2928 32.3017 24.3961
O 7.20956 18.4657 13.4034
H 7.89527 18.9071 12.9022
H 6.40671 18.935 13.1766
O 2.32768 25.744 12.2002
H 1.60489 26.2001 11.7692
H 2.05744 25.6776 13.1161
O 32.3401 15.1864 14.0696
H 32.8294 16.0072 14.0137
H 31.4542 15.4155 13.7889
O 29.1274 29.2351 24.7255
H 28.8797 30.0387 24.2684
H 29.5753 28.71 24.0623
O 4.76791 30.0111 4.4338
H 4.87162 29.3959 3.70786
H 5.35769 30.7345 4.22144
O 21.4259 20.3278 2.60656
H 22.3299 20.4901 2.33716
H 20.9791 20.065 1.80181
O 15.7268 13.426 8.33588
H 16.4273 12.8905 8.70838
H 16.1825 14.1055 7.83908
O 20.121 27.436 27.9766
H 19.7475 28.3168 27.9468
H 21.0665 27.5743 27.9211
O 31.6194 23.5287 18.6045
H 31.1432 23.7974 19.3901
H 30.9727 23.5847 17.901
O 23.0031 1.69797 24.0562
H 22.5335 0.932228 24.3869
H 23.9205 1.52752 24.2697
O 26.633 26.4826 29.3728
H 27.3876 25.9192 29.2016
H 25.8987 25.8767 29.4726
O 1.82712 0.92101 8.74699
H 2.33938 32.7414 8.15745
H 1.46972 32.6883 9.3955
O 30.7794 12.7862 18.8154
H 29.8809 13.051 19.012
H 30.754 12.5132 17.8983
O 8.00245 19.7164 19.3618
H 7.76264 20.0891 18.5134
H 8.30143 20.4656 19.8771
O 21.7852 23.5027 32.0086
H 22.5886 23.0598 31.7354
H 21.0964 23.0967 31.4823
O 14.0745 8.35347 9.14394
H 14.7104 8.50456 8.44457
H 13.516 7.65027 8.81266
O 23.6776 21.3518 1.43208
H 23.8385 21.4742 32.8703
H 24.5484 21.3647 1.82912
O 9.24609 21.7239 13.7832
H 8.52046 21.752 13.1596
H 9.04257 22.4096 14.4193
O 11.871 27.7951 31.3237
H 11.3867 28.6186 31.2641
H 12.2439 27.7993 32.2053
O 18.6829 25.8201 29.6798
H 19.3409 26.2924 29.1696
H 17.8475 26.0736 29.2873
O 20.5324 16.8412 15.2708
H 20.1881 16.9554 16.1566
H 20.071 16.0745 14.931
O 31.6309 6.81058 7.16003
H 32.3451 6.18047 7.06448
H 31.1928 6.80759 6.30901
O 32.6574 7.74321 24.29
H 32.5091 7.03401 23.6645
H 31.788 7.94277 24.6372
O 21.3941 14.063 11.1774
H 21.8746 13.3033 11.5064
H 21.4292 13.975 10.2249
O 17.625 19.5069 17.3669
H 17.012 20.1584 17.0264
H 17.1159 18.6975 17.4095
O 29.0199 16.1948 28.6013
H 29.5417 15.4275 28.8362
H 29.5347 16.6378 27.9268
O 12.7613 18.2144 24.9117
H 13.6684 18.117 25.2013
H 12.5369 17.3636 24.535
O 25.1101 0.851617 4.77484
H 25.6504 0.959672 5.5576
H 24.7279 1.71644 4.62579
O 29.3534 6.19117 26.4734
H 29.5617 5.31721 26.8036
H 30.1958 6.64487 26.4471
O 32.6094 4.19322 25.3202
H 31.7139 4.21769 25.6573
H 32.5476 4.57944 24.4466
O 12.0429 31.7961 28.7676
H 12.5622 32.5407 29.0712
H 11.7126 31.391 29.5696
O 14.0041 27.1385 9.89366
H 14.0722 27.8411 9.24714
H 13.4078 26.5038 9.49645
O 15.6629 24.9324 12.4193
H 14.9091 24.5313 11.9866
H 15.5468 24.7232 13.3462
O 5.20734 18.2601 3.2454
H 4.26887 18.0717 3.25041
H 5.47239 18.1348 2.33419
O 11.6496 22.9156 5.43383
H 10.8548 22.6171 5.87589
H 11.507 23.8511 5.28956
O 18.8421 7.49441 3.58144
H 19.1019 7.53453 2.66106
H 19.6436 7.25528 4.04687
O 25.9192 8.32259 25.5216
H 25.4323 7.9274 26.2448
H 26.606 8.83604 25.9469
O 31.7804 19.9011 29.4944
H 31.6704 19.6124 30.4004
H 32.3712 20.652 29.5518
O 15.8901 19.7317 30.8732
H 14.9343 19.7721 30.9036
H 16.11 19.9333 29.9636
O 21.9235 28.1841 19.6968
H 21.5176 28.8519 20.2495
H 21.5446 28.3275 18.8296
O 20.0516 26.6035 23.7625
H 20.9268 26.7708 24.1123
H 19.5078 27.2978 24.1344
O 2.63765 4.60828 17.0126
H 2.63913 4.21455 16.1401
H 1.95726 5.28029 16.9715
O 14.4957 17.999 3.43364
H 13.7341 18.564 3.5641
H 14.8648 17.8877 4.30976
O 32.6727 14.7577 19.7778
H 32.0204 14.0701 19.6439
H 1.14055 14.3122 19.6809
O 8.2777 7.38486 10.8816
H 7.35864 7.65088 10.8535
H 8.24965 6.42912 10.9263
O 5.87175 6.53727 31.6981
H 5.40382 7.06168 31.0483
H 5.18256 6.17065 32.252
O 26.9193 23.3553 32.497
H 26.8903 22.6625 0.783009
H 26.765 24.1618 32.9889
O 5.05731 9.39619 18.8902
H 5.83891 8.84669 18.832
H 5.38736 10.2916 18.8157
O 6.1707 32.5451 4.79583
H 5.61683 0.879791 5.12368
H 6.97826 32.9794 4.52103
O 18.739 4.55088 26.1211
H 17.8823 4.15549 25.9604
H 19.3667 3.86934 25.8807
O 17.6483 26.2109 20.9004
H 17.7686 27.0612 20.4776
H 18.501 25.7827 20.8253
O 27.5497 27.8738 17.0415
H 27.539 28.0648 16.1036
H 27.3189 28.7042 17.458
O 16.5944 28.003 31.4783
H 17.1061 28.0736 32.2842
H 17.0677 27.3612 30.949
O 26.3295 12.529 3.4659
H 25.4419 12.7327 3.17101
H 26.4201 12.9974 4.29573
O 18.8122 14.048 11.8363
H 19.0921 13.9917 12.7499
H 19.6281 14.0764 11.3367
O 21.3047 1.80249 11.6661
H 20.7166 1.55293 10.9533
H 21.5574 2.70342 11.4645
O 14.6378 11.4689 19.0675
H 15.4706 11.249 19.485
H 14.4587 10.7304 18.4855
O 26.8738 7.71363 22.8392
H 26.0209 7.6102 22.4173
H 26.6674 7.90024 23.7551
O 27.2885 19.1084 29.9322
H 27.6694 18.5304 30.5933
H 27.9568 19.7777 29.7849
O 21.6567 5.64448 18.1929
H 21.1049 6.28642 18.6398
H 22.0263 6.12155 17.4499
O 13.8824 10.705 2.8839
H 14.5824 11.3044 2.62511
H 13.7669 10.13 2.12741
O 9.33242 26.206 19.8892
H 8.62393 26.1718 20.5319
H 10.0106 26.7364 20.3076
O 3.1046 6.36191 22.5275
H 3.88938 5.81538 22.5683
H 2.41079 5.76504 22.2471
O 8.804 11.7278 3.70215
H 8.0973 11.1518 3.99385
H 8.39858 12.2895 3.04163
O 21.9967 16.0298 21.5898
H 22.8087 15.5438 21.4463
H 21.9755 16.6756 20.8836
O 30.1837 22.8116 14.3449
H 30.0813 21.8932 14.0952
H 29.9044 22.8442 15.2598
O 30.1787 27.1083 5.40732
H 30.3182 27.9163 4.91336
H 30.2055 27.3802 6.3247
O 32.7599 6.22861 17.5363
H 32.259 7.04317 17.4942
H 32.3323 5.65097 16.904
O 9.71471 2.38211 18.4685
H 10.5898 2.12481 18.1784
H 9.3135 2.78098 17.6964
O 26.8833 3.61026 13.7674
H 26.4824 3.78505 12.9159
H 26.3599 4.1176 14.3878
O 4.07008 3.11563 31.5875
H 4.74763 3.16336 30.913
H 4.5545 3.08354 32.4124
O 19.188 4.08341 28.8891
H 18.8563 4.47573 28.0814
H 20.0149 4.53648 29.054
O 3.25351 31.4251 23.3412
H 4.12736 31.7752 23.5145
H 2.84331 31.3658 24.204
O 16.6969 13.5013 17.0823
H 16.7342 14.1286 16.3603
H 15.8006 13.1659 17.0628
O 22.0924 27.7498 3.17485
H 21.474 28.4602 3.00418
H 21.6135 26.954 2.94331
O 13.4942 14.7467 5.20964
H 13.314 14.7347 4.26964
H 13.2279 15.6211 5.49387
O 19.5717 12.857 2.90163
H 18.8642 13.44 3.17693
H 19.1271 12.1259 2.4727
O 20.4361 24.1778 12.2868
H 19.5273 23.9019 12.4062
H 20.6854 23.8203 11.4345
O 16.6708 3.74053 19.5869
H 16.4896 4.39996 20.2567
H 15.8085 3.49767 19.2498
O 1.76337 3.72746 3.79063
H 1.7594 4.16508 4.64192
H 1.94793 2.81031 3.99312
O 14.0065 13.2055 26.7216
H 13.9818 13.0412 27.6642
H 13.1215 13.0018 26.4192
O 26.0094 7.03724 13.0294
H 25.8768 6.56412 13.8509
H 25.2448 7.60825 12.9552
O 14.694 30.9635 5.70204
H 14.4456 30.0582 5.8891
H 15.374 30.8923 5.03217
O 16.0831 7.12471 23.9677
H 15.7464 6.29151 24.2974
H 15.3231 7.70669 23.9658
O 28.6122 27.7887 20.8318
H 29.1135 27.5712 20.0459
H 29.1245 27.4217 21.5523
O 2.62113 14.5053 12.0666
H 2.71764 13.9359 12.8299
H 3.13248 14.076 11.3807
O 30.0965 30.4309 11.1537
H 30.6923 31.0256 10.6981
H 29.315 30.957 11.3227
O 2.62301 30.4704 2.2705
H 3.22403 30.2698 1.55303
H 3.15995 30.4009 3.05988
O 7.74643 6.57973 22.2531
H 8.21598 6.17375 22.9817
H 6.8663 6.73927 22.5939
O 32.0109 30.4582 21.8047
H 32.339 31.118 22.4156
H 31.2615 30.8758 21.3802
O 26.1128 12.9123 12.0993
H 26.7697 13.5913 11.9453
H 26.5247 12.1054 11.7903
O 2.6859 23.3337 21.6225
H 3.18065 22.7973 22.242
H 2.21874 22.7009 21.0769
O 23.745 28.6021 5.45961
H 23.6223 28.42 6.39129
H 23.4542 27.8038 5.01872
O 1.44934 19.9444 18.1141
H 32.9846 20.1403 17.6961
H 2.03827 20.6327 17.8047
O 3.41986 12.8297 9.56808
H 4.2351 12.4032 9.83206
H 2.79213 12.1127 9.47801
O 10.9724 6.43483 23.0944
H 11.0404 6.22382 22.1632
H 10.2664 5.8744 23.4165
O 5.38199 7.13775 27.092
H 6.25572 7.5241 27.1518
H 5.04099 7.17603 27.9856
O 10.3651 9.33533 2.35926
H 10.7135 9.97962 1.74304
H 10.0232 9.85767 3.08486
O 31.1833 12.6554 15.9185
H 30.4876 12.8036 15.278
H 31.2181 11.7041 16.0192
O 4.72442 29.504 15.2814
H 5.09032 28.68 14.9599
H 5.46648 30.1085 15.291
O 6.57437 2.49043 16.6358
H 7.30439 2.81369 16.1078
H 6.57884 1.54333 16.4972
O 25.6744 22.0761 25.0078
H 25.6515 22.1313 24.0525
H 25.4408 21.1683 25.2014
O 26.1668 5.01353 8.58934
H 26.5083 5.88075 8.80747
H 25.7477 4.71101 9.39499
O 12.3407 25.5421 26.4611
H 12.595 25.5235 25.5385
H 12.2616 26.4729 26.6696
O 22.5473 4.69177 11.0524
H 22.6101 5.61843 10.8209
H 22.8867 4.64416 11.9461
O 31.4531 22.0854 5.11862
H 32.3099 22.4129 4.845
H 31.0588 22.815 5.59666
O 23.6517 21.4328 9.43277
H 24.287 20.7658 9.69313
H 24.1716 22.2286 9.32046
O 28.4045 2.89512 31.5788
H 27.5709 2.80531 32.0407
H 28.8389 3.63186 32.0087
O 31.1153 24.5126 21.128
H 31.1897 24.3815 22.0732
H 30.2099 24.7935 20.9952
O 20.9043 32.1721 6.32739
H 20.541 31.2944 6.20972
H 21.4816 32.0931 7.08682
O 15.9686 24.5149 1.94234
H 16.1449 24.7979 1.04508
H 15.0377 24.6958 2.07245
O 4.00086 11.3627 31.2331
H 4.53709 11.2777 30.4448
H 3.72861 10.4677 31.4358
O 30.0969 29.3537 3.95876
H 29.7292 29.4833 3.08454
H 31.0046 29.6479 3.88342
O 22.6876 5.5306 26.0833
H 23.5688 5.15696 26.0732
H 22.8224 6.46736 25.94
O 10.8943 10.218 27.349
H 10.5369 9.83188 26.5494
H 10.9366 11.1562 27.1644
O 10.7844 13.5087 22.1984
H 9.97321 13.171 21.8187
H 10.7765 14.4428 21.9894
O 19.1826 25.5017 32.5094
H 19.7901 25.1808 31.8429
H 19.415 26.4234 32.622
O 11.8378 28.3321 15.1319
H 11.8115 27.4986 14.662
H 11.7757 28.9965 14.4456
O 15.4598 18.7196 25.631
H 15.7806 18.9124 26.512
H 16.1136 18.1257 25.2622
O 12.5261 9.12151 19.7897
H 12.6625 8.44941 19.122
H 13.3017 9.06611 20.3479
O 4.69031 8.39301 21.6698
H 4.78369 8.62417 20.7456
H 4.02437 7.70551 21.6791
O 1.32544 4.02751 11.802
H 1.15903 3.91831 12.7383
H 0.642561 3.51027 11.375
O 6.01101 9.68967 7.51369
H 6.82333 9.2096 7.67463
H 5.91666 9.68922 6.56116
O 7.69789 31.4345 10.8691
H 7.32414 30.6426 11.2555
H 7.119 31.6395 10.1349
O 18.1592 1.59063 18.8613
H 17.6031 1.11086 18.2475
H 17.6322 2.34563 19.1229
O 20.3257 12.5262 20.3778
H 19.7292 13.1218 19.9242
H 19.7631 12.0296 20.972
O 23.3965 21.7623 19.7501
H 22.5547 21.7236 19.2961
H 23.3535 21.0571 20.3959
O 26.3913 22.066 6.99117
H 25.7002 22.6749 7.25162
H 26.8251 22.4962 6.25427
O 27.9865 30.4917 28.6766
H 27.7545 31.4114 28.8054
H 28.88 30.5153 28.334
O 21.1534 1.70819 18.9488
H 20.3878 1.71518 19.5232
H 21.0236 0.945461 18.3852
O 14.9847 1.37107 6.58365
H 14.3441 1.91654 6.12724
H 14.7554 32.8487 6.33778
O 30.5532 6.81134 11.7612
H 30.2262 6.04994 12.2403
H 31.1337 7.25353 12.3806
O 1.99128 2.03436 24.8699
H 2.65289 2.47273 25.405
H 1.23345 2.61838 24.8991
O 28.3305 8.35896 11.9953
H 27.5695 7.99223 12.4454
H 29.0164 7.70098 12.1085
O 6.63331 3.49889 30.2363
H 7.00222 3.49956 29.353
H 7.21516 4.06822 30.7398
O 15.2958 4.9089 25.1174
H 14.6331 4.78133 24.4385
H 14.7959 5.13945 25.9004
O 25.5766 3.30865 22.0257
H 25.742 2.51447 22.5338
H 26.2781 3.90762 22.2814
O 32.2013 9.60267 31.694
H 31.7093 9.12993 32.3654
H 0.72781 9.29344 31.7939
O 24.7165 7.21748 18.6442
H 24.0151 6.89414 18.0787
H 25.1678 7.87499 18.1148
O 3.79153 32.7128 20.6118
H 4.47442 32.5012 19.9753
H 3.22088 31.9443 20.6159
O 26.6229 20.3072 27.5676
H 27.4405 20.3891 27.0767
H 26.8668 19.8335 28.3628
O 19.9471 4.06923 8.72575
H 20.8703 3.81708 8.74188
H 19.8902 4.8104 9.3288
O 16.0823 30.1509 12.3439
H 16.605 30.7664 11.8299
H 15.2197 30.1639 11.9291
O 24.1207 1.32438 7.93931
H 23.559 32.9817 8.23471
H 23.6972 2.11493 8.27383
O 21.2561 3.57182 24.6904
H 21.7082 4.30903 25.1008
H 21.9442 2.92486 24.5349
O 20.0566 1.2249 14.1049
H 19.1689 1.56976 14.0088
H 20.4692 1.38417 13.256
O 6.54043 29.0951 11.4332
H 6.33428 28.5256 12.1744
H 7.12773 28.5736 10.886
O 3.31253 23.0453 14.6057
H 2.68951 22.4399 14.2038
H 3.58015 23.6236 13.8914
O 24.1161 2.20068 29.0148
H 24.529 3.02138 29.2835
H 24.6281 1.91029 28.26
O 0.84752 27.9893 22.4507
H 0.927707 27.3698 21.7253
H 0.893683 28.851 22.0365
O 31.8397 19.76 26.7254
H 31.1196 20.3846 26.6386
H 32.0551 19.7701 27.658
O 21.9619 6.09371 2.03498
H 21.6299 5.49178 1.36885
H 22.5987 6.6374 1.57121
O 29.2982 28.2276 31.3537
H 28.9888 27.3291 31.4683
H 28.8658 28.5303 30.5551
O 11.4434 12.9464 12.9285
H 11.4416 13.1401 13.8659
H 10.7806 13.5312 12.5612
O 31.7956 10.0817 14.862
H 30.9762 10.2977 14.417
H 32.0915 9.27421 14.4416
O 31.2183 10.2224 29.1835
H 31.4984 10.2969 30.0957
H 31.9777 10.5074 28.6752
O 16.799 23.1311 8.16806
H 17.0286 22.9727 7.25237
H 15.9382 22.7261 8.2732
O 10.8395 23.6162 22.0144
H 10.1167 24.177 22.2961
H 11.6212 24.031 22.3792
O 11.9664 10.5954 22.8412
H 11.084 10.2651 22.6725
H 11.8304 11.3926 23.3534
O 24.1289 12.3994 15.043
H 25.0596 12.4511 14.8252
H 23.98 11.4751 15.2423
O 21.6086 22.7607 7.47349
H 22.1603 22.1385 7.94765
H 21.3908 22.3135 6.6557
O 6.76063 14.0136 26.9573
H 5.88409 14.3971 26.9866
H 7.13653 14.2083 27.8159
O 2.66753 7.83751 5.23011
H 3.02423 7.85601 6.11818
H 2.5542 6.90701 5.03635
O 9.56947 31.3619 16.7118
H 8.70225 31.7539 16.6096
H 10.1753 32.0356 16.403
O 18.9961 30.2437 5.71135
H 18.4585 30.5116 6.4566
H 18.4459 30.4106 4.94612
O 4.01175 14.8335 26.6087
H 3.56291 15.6785 26.6368
H 3.47002 14.2561 27.1466
O 7.30817 16.3961 22.6099
H 7.44524 15.4897 22.8854
H 6.50857 16.6659 23.0617
O 23.4902 16.2806 31.4508
H 22.6954 16.6188 31.0383
H 23.8173 17.0108 31.9762
O 15.8731 13.9316 21.8199
H 16.2761 14.7998 21.8099
H 16.6031 13.3298 21.9657
O 29.457 6.35524 16.4146
H 28.8922 7.12589 16.3567
H 28.8579 5.63206 16.6
O 1.45293 10.4048 22.679
H 32.9984 10.6416 22.262
H 1.20508 9.80159 23.3797
O 27.6215 30.5113 18.4581
H 28.5411 30.4284 18.206
H 27.6467 30.7242 19.391
O 32.0611 2.71088 7.97449
H 32.5104 3.41394 7.50543
H 32.7518 2.08185 8.18304
O 15.5028 17.389 16.6154
H 14.8097 17.4248 15.9562
H 16.1479 16.782 16.2526
O 24.9934 13.502 29.6801
H 25.6453 12.9989 29.192
H 25.4043 13.6677 30.5286
O 22.183 14.3458 8.48181
H 22.498 15.2484 8.43427
H 22.2214 14.0303 7.5789
O 16.5888 2.15157 12.6852
H 16.6705 1.87503 13.5979
H 17.1337 2.93602 12.6224
O 26.5039 0.936307 20.29
H 26.4874 1.79058 20.7215
H 27.2243 0.998142 19.6628
O 12.0742 2.50512 2.69549
H 12.8532 1.98108 2.50888
H 12.0598 2.58227 3.64947
O 20.8699 16.0789 30.4584
H 20.7215 16.5243 29.6243
H 19.9921 15.9235 30.807
O 23.7642 12.7204 24.0821
H 23.6309 13.1724 24.9152
H 22.9005 12.3756 23.8553
O 27.1228 22.0479 19.406
H 27.7245 21.6771 20.0515
H 27.6925 22.4289 18.7379
O 1.43289 22.4035 31.761
H 1.69575 22.4245 30.8409
H 1.13778 23.2949 31.9467
O 32.8509 1.43929 0.993885
H 32.1699 0.769063 0.936853
H 32.494 2.09361 1.59446
O 3.22961 15.608 15.9898
H 3.0473 14.7445 16.3604
H 3.07055 16.2171 16.7109
O 27.0497 3.06817 5.14892
H 27.9063 3.49147 5.20558
H 26.4216 3.78649 5.2246
O 12.5132 10.0443 30.4091
H 12.924 9.95154 31.2687
H 11.5916 9.834 30.5596
O 9.96147 3.75567 20.8058
H 9.8613 3.23882 20.0064
H 10.693 3.34521 21.2669
O 24.4725 4.83812 28.824
H 24.6302 5.15829 29.7121
H 23.5212 4.87049 28.7226
O 4.4907 24.8405 5.69524
H 4.37009 25.2463 4.83677
H 5.29548 24.3296 5.60825
O 22.7534 19.6712 21.3094
H 21.9572 20.1982 21.3768
H 22.6169 19.1284 20.5329
O 25.7449 13.8133 5.71747
H 26.1504 13.3617 6.45762
H 25.125 13.1781 5.35906
O 5.19834 20.7995 25.9379
H 5.26279 20.5433 25.0179
H 4.28802 20.6207 26.1736
O 16.4013 5.85853 21.3982
H 15.7786 6.33571 20.8498
H 16.4026 6.3337 22.2291
O 1.27962 25.8502 26.5612
H 0.934578 26.6225 26.1132
H 32.9212 25.5319 27.0892
O 12.5379 6.12645 9.24269
H 13.1231 5.37464 9.15042
H 11.7272 5.75786 9.59372
O 15.4936 8.52559 12.8346
H 15.0862 9.09641 13.4861
H 14.7574 8.13809 12.3612
O 24.1793 19.5852 14.6961
H 25.0657 19.9239 14.8219
H 24.0428 18.9904 15.4336
O 24.496 26.8535 23.0642
H 23.978 27.6347 22.8702
H 23.8646 26.1346 23.0389
O 32.2198 19.642 6.32887
H 32.3061 18.9641 5.65861
H 31.9245 20.4165 5.85021
O 20.8398 30.2557 21.3278
H 20.6911 31.2006 21.364
H 20.0984 29.9151 20.8273
O 19.2901 1.34354 28.6715
H 19.3108 2.28908 28.819
H 18.4489 1.18594 28.2427
O 7.53362 1.0038 19.8519
H 8.28582 0.859851 19.2777
H 7.88811 1.49462 20.5933
O 29.9597 28.6114 13.6422
H 29.9753 29.3993 13.099
H 29.0305 28.3994 13.7309
O 9.78003 27.8338 28.3381
H 9.81621 28.2966 29.1752
H 9.56897 26.93 28.5725
O 18.4609 30.4529 17.9827
H 19.1812 31.0828 18.0054
H 17.6847 30.9824 17.8
O 30.3092 3.78951 22.0992
H 29.5146 4.21656 22.4194
H 31.0218 4.3566 22.3938
O 32.3156 26.6487 10.9343
H 32.1546 26.848 10.0121
H 32.3789 27.505 11.3574
O 23.1125 12.0374 20.1473
H 23.5786 12.6719 20.6917
H 22.1974 12.1166 20.4166
O 10.4683 0.671062 14.2262
H 10.7139 1.13947 13.4284
H 10.848 1.1897 14.9355
O 13.409 27.5547 1.13264
H 13.0528 27.8032 1.98561
H 14.332 27.8045 1.17608
O 22.0354 30.0045 12.8618
H 22.4967 29.3123 12.3883
H 21.2558 30.1778 12.3341
O 20.3935 3.20687 22.0414
H 19.7664 3.85438 21.7194
H 20.6207 3.50943 22.9206
O 31.1013 23.445 11.4278
H 31.1649 22.5749 11.034
H 30.9507 23.277 12.358
O 22.7699 25.8086 5.39828
H 23.6474 25.6 5.71852
H 22.5912 25.1413 4.73573
O 28.3557 24.0497 25.7131
H 28.492 23.1065 25.6233
H 28.3043 24.1959 26.6577
O 16.1461 23.2179 26.8764
H 15.4901 23.9094 26.9649
H 16.5324 23.1405 27.7488
O 28.0745 10.0173 31.982
H 27.5348 10.194 32.7525
H 27.7433 9.18589 31.6425
O 19.715 20.408 21.0463
H 19.4875 19.6817 21.6269
H 19.311 21.1751 21.452
O 21.183 31.6486 17.5917
H 21.421 31.5022 16.6762
H 22.0148 31.6146 18.0643
O 16.4726 13.9628 30.7286
H 16.4148 13.8757 29.7771
H 16.4257 13.0643 31.0552
O 32.9074 1.27347 19.0341
H 32.3541 1.48909 19.7848
H 32.7003 32.7336 18.8379
O 14.176 32.2212 18.9185
H 14.9034 32.4278 18.3316
H 13.3947 32.3092 18.3725
O 14.0039 24.3157 28.2532
H 13.4332 24.9029 27.7574
H 13.7596 23.4383 27.9586
O 0.735775 15.7105 6.29599
H 32.2944 16.0449 5.92197
H 1.15476 16.4788 6.68389
O 16.5143 27.0791 28.5951
H 15.7277 27.6218 28.6485
H 16.6656 26.9675 27.6565
O 14.2054 22.3154 8.08968
H 13.4996 21.7095 8.31536
H 14.305 22.2255 7.14193
O 19.6083 14.3355 14.4708
H 19.7096 13.553 15.0127
H 18.7026 14.6105 14.6134
O 2.60599 17.6252 3.60038
H 2.87827 16.8449 3.11754
H 3.05795 17.5569 4.44139
O 12.8859 31.9127 9.37203
H 12.7044 32.8012 9.06544
H 12.2903 31.3585 8.86773
O 29.6696 16.1775 6.60641
H 28.8631 16.592 6.29978
H 29.4041 15.6777 7.37839
O 19.1173 31.6525 24.2078
H 19.9249 31.7163 24.7176
H 19.3499 31.9973 23.3456
O 13.5623 30.0519 11.3285
H 13.3675 30.7256 10.6771
H 12.897 30.1734 12.0058
O 1.04827 21.6035 20.224
H 1.3087 21.0619 19.479
H 32.8195 22.2481 19.853
O 19.5736 1.16302 9.54272
H 18.6691 1.42 9.36368
H 19.5691 32.5818 9.47805
O 19.9665 20.8583 16.1508
H 20.2267 21.07 17.0473
H 19.3549 20.128 16.2446
O 26.6834 16.1935 27.2299
H 27.5806 16.1996 27.5634
H 26.7511 16.5692 26.3521
O 9.70728 31.0348 19.6758
H 10.0371 30.1375 19.7228
H 9.622 31.2104 18.7387
O 0.689744 27.5291 16.9172
H 0.645345 26.9714 17.6939
H 1.52351 27.9917 17.0013
O 9.7798 18.726 9.81137
H 9.14056 18.0189 9.72374
H 9.59325 19.3106 9.07674
O 8.2476 1.50224 3.41687
H 8.98419 0.944986 3.16559
H 8.4647 2.36294 3.0587
O 12.0353 28.1959 27.0503
H 11.1437 28.1489 27.3952
H 12.1379 29.1065 26.7736
O 19.7247 7.04912 23.4398
H 19.441 6.38294 22.8137
H 19.2054 6.87692 24.2252
O 10.2747 5.36355 28.9417
H 10.8041 5.85293 29.5714
H 10.872 4.70553 28.5861
O 3.95924 4.51095 8.01351
H 3.11419 4.62814 7.57947
H 3.77701 3.90887 8.73498
O 13.7337 18.0584 14.6327
H 14.2256 17.9438 13.8197
H 13.5211 18.9915 14.6552
O 5.68294 7.73744 10.7842
H 5.37438 8.51932 11.2421
H 5.43519 7.01094 11.3561
O 26.2034 28.739 3.69971
H 26.5983 29.586 3.90672
H 25.5647 28.5948 4.39798
O 24.895 15.5044 2.69797
H 24.5834 14.7751 2.16195
H 24.1 15.8836 3.07272
O 13.4247 5.80976 19.7078
H 13.8774 6.04912 18.8991
H 13.1016 4.92293 19.5485
O 10.5527 23.3992 30.3004
H 11.3733 23.6011 30.75
H 10.6362 22.479 30.0504
O 16.7708 10.5041 20.4727
H 17.2301 10.0999 19.7366
H 17.4497 10.9888 20.9422
O 20.3534 22.022 30.0014
H 20.3005 21.3837 30.7127
H 20.8471 21.5749 29.3139
O 22.1053 1.98503 15.8631
H 22.5475 1.14046 15.777
H 21.4649 1.99423 15.1517
O 31.4011 17.3702 19.7707
H 30.6234 17.1167 19.2736
H 31.9161 16.566 19.8369
O 29.6029 11.0133 8.2
H 30.2299 11.6009 7.77831
H 30.1183 10.2421 8.43643
O 31.0218 3.51624 10.5627
H 31.4431 3.10847 9.80614
H 30.5921 4.29442 10.2076
O 6.92672 30.3258 30.3597
H 6.88801 29.7412 31.1167
H 7.85815 30.5188 30.253
O 8.878 21.729 20.7723
H 9.14459 22.4455 20.1963
H 8.85581 22.1192 21.6461
O 15.9338 27.8574 2.11486
H 16.1028 28.7647 2.3687
H 16.2126 27.3408 2.8709
O 19.3132 26.8165 10.8557
H 19.0607 26.0742 10.3066
H 20.2651 26.867 10.7681
O 6.01767 21.5946 22.9247
H 6.49501 22.4239 22.95
H 6.57647 20.9814 23.4022
O 9.74115 10.0764 31.0712
H 8.89865 9.74893 31.3861
H 10.0419 10.6677 31.7613
O 2.33641 3.70223 20.3801
H 1.56137 4.05521 20.8171
H 2.74984 3.14399 21.0387
O 5.72885 24.4103 1.4422
H 5.44698 25.0897 2.05473
H 6.13993 23.745 1.9942
O 23.6076 2.88625 4.11434
H 23.9758 3.71565 4.41892
H 23.2448 3.08715 3.25163
O 7.86583 19.6383 27.0175
H 6.97502 19.7363 26.6812
H 8.08025 18.7181 26.8647
O 7.61895 8.65985 32.6847
H 7.34496 8.85122 1.20785
H 6.92259 8.10433 32.3344
O 0.770512 0.832306 27.2977
H 32.8869 1.55612 26.7267
H 32.3559 32.6688 27.3744
O 30.7619 26.6269 27.8989
H 31.4058 26.5793 28.6056
H 30.7774 27.5429 27.6216
O 6.97128 22.0942 17.526
H 7.69631 22.6049 17.8861
H 6.97318 22.3007 16.5913
O 28.6682 9.04891 16.1735
H 28.6764 9.28172 15.2451
H 27.8512 9.41995 16.5068
O 18.9112 6.91532 9.8191
H 19.3333 7.43469 9.13476
H 19.2849 7.24575 10.636
O 2.54122 17.0784 18.399
H 2.12858 16.9867 19.2578
H 2.37952 17.9887 18.1511
O 14.4676 10.0513 15.0623
H 13.6262 10.2754 14.6648
H 14.6517 10.7763 15.6595
O 11.8624 11.6452 4.67423
H 11.0268 11.8201 4.24147
H 12.3636 11.1408 4.03342
O 5.74742 28.3291 2.45344
H 6.51276 28.1914 3.01159
H 5.14936 27.6191 2.68677
O 11.4616 14.3079 6.98934
H 12.0253 14.1719 7.7509
H 12.0475 14.2174 6.23784
O 8.03041 4.32457 12.6632
H 8.48643 4.30185 13.5045
H 8.73079 4.34484 12.011
O 11.6534 25.0181 12.1035
H 11.649 25.9583 11.9239
H 11.0097 24.6546 11.4955
O 22.65 3.67284 8.58565
H 22.944 4.34741 7.97349
H 22.7914 4.05619 9.45126
O 9.14669 20.6143 7.99683
H 8.98564 21.5558 7.93583
H 9.65375 20.4062 7.21208
O 6.38576 21.9495 30.9293
H 6.07115 21.0504 30.8348
H 5.59876 22.4606 31.1182
O 11.9729 7.05002 30.4378
H 11.2947 7.16098 31.1041
H 12.4166 7.89747 30.4035
O 18.5079 15.9175 2.39843
H 17.5643 16.034 2.50929
H 18.6169 15.7123 1.46985
O 14.1536 18.4173 8.08947
H 13.732 18.7109 8.89712
H 13.4279 18.1739 7.51473
O 12.1848 10.4649 13.5364
H 11.7359 11.2693 13.2764
H 11.6547 10.115 14.2525
O 4.44099 25.2472 18.1391
H 4.56365 25.9759 18.7476
H 3.50533 25.2578 17.9375
O 28.9438 1.48738 26.7428
H 28.0744 1.2201 27.0412
H 29.5143 0.756376 26.9804
O 10.363 11.9832 18.6045
H 9.87468 12.7224 18.2419
H 10.6741 11.5019 17.8378
O 4.40067 30.3557 32.6546
H 5.26439 29.9513 32.5727
H 3.81509 29.7703 32.1744
O 2.52363 25.3957 7.70667
H 2.91626 24.9973 8.48341
H 3.20342 25.334 7.03562
O 8.83362 15.6542 20.5128
H 8.12681 15.88 21.1175
H 9.62099 16.0185 20.9172
O 20.352 32.5283 31.2918
H 20.1384 31.605 31.1573
H 20.0514 32.9629 30.4937
O 26.674 14.0319 21.157
H 27.1408 13.8664 20.3379
H 27.2649 14.5912 21.6613
O 4.83529 0.917576 27.9725
H 4.44665 32.9062 28.7579
H 5.77948 0.838445 28.1085
O 14.4086 19.0509 18.5885
H 14.738 18.459 17.9123
H 14.2962 19.889 18.1399
O 15.0974 6.26117 14.5585
H 14.7986 6.68586 13.7544
H 16.0433 6.40707 14.5696
O 13.7237 1.72567 14.9138
H 14.2181 1.04227 14.4614
H 13.2555 1.26298 15.6088
O 3.33857 25.8747 28.3875
H 2.46246 25.7194 28.0346
H 3.90752 25.2951 27.881
O 12.0713 2.77569 22.0256
H 12.6157 3.49373 22.3485
H 11.7147 2.37057 22.8161
O 27.0177 0.94127 29.0248
H 27.1116 1.88945 28.9333
H 26.3053 0.712015 28.4279
O 32.5944 32.228 13.4099
H 1.02677 32.4608 13.8705
H 32.122 31.6645 14.0228
O 16.9157 25.6996 9.36547
H 16.857 24.8498 8.92884
H 16.2172 26.2212 8.97028
O 5.36957 14.9291 10.9506
H 4.78485 15.4479 10.3981
H 5.9392 15.5743 11.3694
O 19.4928 16.8738 17.9306
H 18.7558 17.353 18.3092
H 20.2459 17.1335 18.4612
O 15.8546 31.0903 23.8648
H 15.6713 30.2411 24.2667
H 16.72 31.3306 24.1955
O 18.6899 22.7659 2.15245
H 17.9944 23.0687 1.56864
H 18.2806 22.7341 3.01711
O 20.5315 9.90137 32.9585
H 20.5048 8.9881 32.6731
H 19.6479 10.0778 0.907634
O 29.2259 14.732 8.74001
H 29.451 14.2315 9.52432
H 28.5533 15.3469 9.03254
O 2.45237 8.64539 31.9333
H 2.75137 8.14115 32.69
H 3.07975 8.43505 31.2417
O 15.8734 8.35372 3.72557
H 15.3073 8.16164 2.97796
H 16.715 7.95932 3.4969
O 13.8768 23.6161 10.4853
H 13.2489 24.3386 10.4798
H 14.0545 23.4456 9.56031
O 6.31938 18.1304 7.93717
H 6.73451 17.4067 8.40649
H 5.61954 17.7179 7.43084
O 28.0559 21.4193 8.99561
H 27.4884 21.5654 8.23872
H 28.0018 22.2331 9.49666
O 32.0224 12.4018 31.5876
H 31.8244 12.7039 32.4741
H 32.1927 11.465 31.6858
O 17.7116 17.0129 12.8829
H 17.4839 16.4509 13.6236
H 18.5237 17.4438 13.1494
O 13.0871 19.6095 10.3134
H 12.6661 18.8923 10.7872
H 13.3972 20.2009 10.9992
O 11.2136 31.726 22.1853
H 12.041 31.2497 22.1172
H 10.7901 31.5939 21.3371
O 11.5643 18.2547 27.5705
H 12.1048 17.9739 26.8321
H 12.0716 18.0122 28.3451
O 4.86791 24.899 12.3082
H 4.05997 25.3851 12.1433
H 5.32973 25.4176 12.967
O 17.0095 17.2695 19.2045
H 17.1136 17.066 20.134
H 16.5374 16.518 18.8457
O 25.8114 2.81756 32.6084
H 25.3234 2.16063 32.112
H 25.456 3.6554 32.3119
O 31.8172 7.09761 27.6299
H 31.7198 7.57821 28.452
H 32.5136 7.5594 27.163
O 17.016 13.5296 3.96519
H 17.3526 12.6526 4.1492
H 17.2731 14.0499 4.72636
O 11.6291 7.26807 17.2775
H 11.4441 7.98528 16.6712
H 12.4202 6.85715 16.9291
O 15.372 18.8589 21.4067
H 15.0498 18.9359 20.5086
H 15.1954 19.7139 21.7991
O 30.7882 24.6736 23.8316
H 30.2302 24.7055 24.6087
H 31.6539 24.4406 24.1671
O 1.70026 11.431 1.9576
H 2.30343 11.1239 1.28074
H 2.02719 11.0377 2.76673
O 2.49864 11.3592 7.25421
H 3.3618 11.6664 7.53127
H 2.23269 10.7431 7.93682
O 6.60916 17.6957 0.887047
H 6.72956 16.7972 32.9534
H 7.48672 17.9824 1.13979
O 3.74541 19.9774 30.181
H 3.24913 19.1691 30.3094
H 3.08339 20.6333 29.9624
O 23.2411 9.29735 4.06211
H 22.4565 8.75617 4.15013
H 23.9674 8.69493 4.22275
O 26.9465 22.9749 15.2452
H 27.7261 22.7886 15.7684
H 26.9304 22.2832 14.5838
O 3.00867 28.7693 17.437
H 3.52869 28.6529 18.2322
H 3.65573 28.8378 16.735
O 3.49781 15.7612 9.16749
H 3.35128 14.8326 8.98716
H 3.55348 16.1677 8.3027
O 11.6415 26.91 17.8501
H 12.4884 26.7877 17.4212
H 11.1217 26.1549 17.5747
O 14.2803 5.48271 29.5525
H 13.509 5.83907 29.9934
H 14.4415 4.64646 29.9894
O 16.9528 21.8632 32.1038
H 17.8501 21.542 32.0141
H 16.4051 21.1115 31.8775
O 4.32778 4.5159 2.80306
H 4.69346 4.686 3.67115
H 3.44806 4.18 2.97483
O 24.7527 26.6928 17.5616
H 25.6052 26.2756 17.4371
H 24.8757 27.5885 17.2472
O 30.8157 21.3332 9.67747
H 30.1462 21.473 9.00787
H 31.6134 21.1439 9.18339
O 13.7242 8.74134 23.5834
H 12.9092 9.1702 23.3223
H 14.1527 9.37217 24.162
O 4.10433 15.4426 30.5471
H 3.67044 14.6162 30.7592
H 4.93712 15.4041 31.0174
O 17.5418 7.12041 14.4081
H 17.3031 7.84761 13.8332
H 18.4463 7.30281 14.6628
O 17.5436 2.46507 15.4596
H 16.8486 3.12272 15.4318
H 17.1055 1.66508 15.7499
O 11.1016 13.055 27.4176
H 10.5945 13.6518 26.8673
H 11.4157 13.6013 28.1381
O 17.3491 32.2493 11.0474
H 18.2292 31.894 11.1716
H 17.3166 0.641788 11.62
O 9.01375 17.0474 27.6957
H 8.89291 17.4771 28.5424
H 9.93925 17.1789 27.4898
O 1.61698 25.1269 18.0167
H 1.02925 24.3809 18.136
H 1.50586 25.6493 18.8111
O 19.0202 12.1448 16.5224
H 18.8522 11.2608 16.849
H 18.2074 12.6214 16.6907
O 21.0015 13.1712 5.84566
H 20.4681 12.8642 6.57876
H 20.5766 13.9807 5.56212
O 12.2386 12.7548 24.7284
H 11.3939 13.1628 24.919
H 12.8463 13.4894 24.6437
O 27.3159 10.5802 19.7217
H 26.9443 10.3224 18.8781
H 27.7309 11.4261 19.5528
O 13.5076 6.87203 12.1686
H 13.2137 6.57903 11.306
H 12.7023 6.96598 12.6774
O 9.70584 0.968967 10.8944
H 9.11514 32.5903 10.9269
H 10.1251 0.90806 10.0361
O 24.7956 24.0522 8.39543
H 25.1862 24.6268 7.73703
H 25.4479 24.0102 9.09467
O 27.2874 27.8415 13.9469
H 27.2451 26.9753 13.5419
H 26.9778 28.4398 13.2668
O 30.4031 14.7562 4.29674
H 30.0464 14.9802 5.15631
H 30.3372 15.5663 3.79107
O 9.58805 26.6981 25.727
H 9.25257 27.1502 26.5012
H 10.406 27.1504 25.5206
O 23.9147 27.8137 12.4826
H 24.5821 27.1595 12.2757
H 23.2059 27.3137 12.8875
O 32.3666 7.17428 30.3625
H 32.0351 7.99944 30.7167
H 31.6129 6.58449 30.3827
O 9.08736 6.14005 16.7294
H 8.94218 5.23854 16.4423
H 10.0396 6.23519 16.7492
O 24.4816 23.7418 22.8024
H 24.7891 23.7448 21.8959
H 23.6656 23.242 22.7774
O 13.1216 23.4617 31.9159
H 13.1391 23.7351 32.833
H 13.3113 22.5238 31.9414
O 3.49032 6.77423 1.33713
H 2.78896 6.41054 0.796718
H 3.69317 6.08114 1.96539
O 1.79103 12.8214 4.49808
H 1.9771 12.2149 5.21484
H 1.25689 13.5081 4.89731
O 16.9022 2.84834 25.4492
H 15.997 3.15921 25.4625
H 16.9051 2.09263 26.0367
O 17.5892 16.0948 21.7178
H 17.4642 16.5353 22.5583
H 18.3454 15.5245 21.8559
O 32.9684 32.4861 23.2772
H 1.46793 32.408 22.8932
H 0.748789 32.5077 24.2217
O 24.8407 29.9949 31.0671
H 23.9939 30.0097 31.5131
H 25.1052 30.9138 31.0236
O 28.3815 13.2037 1.80408
H 27.8359 12.942 2.54579
H 27.7581 13.4945 1.13844
O 4.57756 24.4469 9.26933
H 4.89382 24.253 10.1517
H 5.26906 24.9811 8.87854
O 16.186 29.2869 21.441
H 16.3215 30.1469 21.8388
H 15.2381 29.1568 21.4679
O 19.4699 20.9189 25.13
H 19.2136 20.7137 26.0291
H 20.3983 21.144 25.1905
O 31.0947 8.51592 17.4384
H 30.5706 8.57205 16.6393
H 31.7629 9.19348 17.3353
O 26.8781 30.0686 21.1845
H 27.5581 29.4058 21.0643
H 26.1024 29.6953 20.7661
O 4.4107 20.9652 3.60977
H 4.99026 21.5847 3.16652
H 4.80829 20.109 3.45115
O 18.901 31.9842 2.65359
H 18.0037 31.6841 2.79833
H 18.8361 32.5859 1.91201
O 9.1699 23.4271 18.6792
H 9.76212 23.411 17.9274
H 9.22218 24.3251 19.0067
O 16.3185 6.25984 9.49177
H 15.7453 6.52122 10.2125
H 17.1426 6.71565 9.6631
O 8.7457 5.12589 24.2915
H 8.06428 4.95907 24.9428
H 9.41695 4.46797 24.4726
O 28.3629 21.0184 11.9861
H 27.7848 21.5801 11.4698
H 27.8101 20.6938 12.6969
O 31.1268 13.5945 1.52795
H 30.1963 13.3711 1.55177
H 31.2349 14.2464 2.22039
O 22.0835 20.7255 24.47
H 22.8492 20.73 25.0444
H 22.3498 21.2443 23.711