LAMMPS (22 Aug 2018)
Reading data file ...
  orthogonal box = (0 0 0) to (33.6962 33.6962 33.6962)
  4 by 4 by 8 MPI processor grid
  reading atoms ...
  3152 atoms
  scanning bonds ...
  2 = max bonds/atom
  scanning angles ...
  1 = max angles/atom
  reading bonds ...
  2000 bonds
  reading angles ...
  1000 angles
Finding 1-2 1-3 1-4 neighbors ...
  special bond factors lj:   0          0          0         
  special bond factors coul: 0          0          0         
  2 = max # of 1-2 neighbors
  1 = max # of 1-3 neighbors
  1 = max # of 1-4 neighbors
  2 = max # of special neighbors
Setting atom values ...
  1000 settings made for charge
Setting atom values ...
  2000 settings made for charge
Setting atom values ...
  76 settings made for charge
Setting atom values ...
  76 settings made for charge
1000 atoms in group wat
76 atoms in group K
76 atoms in group Cl
PPPM initialization ...
  extracting TIP4P info from pair style
  using 12-bit tables for long-range coulomb (../kspace.cpp:321)
  G vector (1/distance) = 0.311414
  grid = 32 32 32
  stencil order = 5
  estimated absolute RMS force accuracy = 0.0032261
  estimated relative force accuracy = 9.71531e-06
  using double precision FFTs
  3d grid and FFT values/proc = 2475 256
Neighbor list info ...
  update every 1 steps, delay 0 steps, check yes
  max neighbors/atom: 2000, page size: 100000
  master list distance cutoff = 12.3092
  ghost atom cutoff = 12.3092
  binsize = 6.1546, bins = 6 6 6
  1 neighbor lists, perpetual/occasional/extra = 1 0 0
  (1) pair lj/cut/tip4p/long, perpetual
      attributes: half, newton on
      pair build: half/bin/newton
      stencil: half/bin/3d/newton
      bin: standard
Setting up cg style minimization ...
  Unit style    : real
  Current step  : 0
Per MPI rank memory allocation (min/avg/max) = 8.192 | 8.248 | 8.723 Mbytes
Step Temp E_pair E_mol TotEng Press 
       0            0    953.99707 3.2938476e-05    953.99711    26411.001 
    1000            0   -21619.888    371.68467   -21248.203   -4461.4062 
Loop time of 1.46044 on 128 procs for 1000 steps with 3152 atoms

99.0% CPU use with 128 MPI tasks x no OpenMP threads

Minimization stats:
  Stopping criterion = max iterations
  Energy initial, next-to-last, final = 
         953.997106204     -21248.1081974     -21248.2029144
  Force two-norm initial, final = 1809.72 21.4545
  Force max component initial, final = 225.95 2.9606
  Final line search alpha, max atom move = 0.0105836 0.0313339
  Iterations, force evaluations = 1000 1778

MPI task timing breakdown:
Section |  min time  |  avg time  |  max time  |%varavg| %total
---------------------------------------------------------------
Pair    | 0.12033    | 0.35851    | 0.56513    |  14.0 | 24.55
Bond    | 0.00083228 | 0.0016416  | 0.0022373  |   0.6 |  0.11
Kspace  | 0.61836    | 0.8343     | 1.0641     |   9.3 | 57.13
Neigh   | 0.0072155  | 0.0073383  | 0.0074758  |   0.1 |  0.50
Comm    | 0.15687    | 0.17588    | 0.19829    |   2.5 | 12.04
Output  | 8.7073e-05 | 9.0638e-05 | 9.3485e-05 |   0.0 |  0.01
Modify  | 0          | 0          | 0          |   0.0 |  0.00
Other   |            | 0.08268    |            |       |  5.66

Nlocal:    24.625 ave 36 max 5 min
Histogram: 1 1 7 3 11 23 39 16 20 7
Nghost:    2563.66 ave 2681 max 2499 min
Histogram: 15 42 25 12 2 0 0 10 13 9
Neighs:    7984.47 ave 13449 max 1513 min
Histogram: 2 6 6 10 25 32 22 16 6 3

Total # of neighbors = 1022012
Ave neighs/atom = 324.242
Ave special neighs/atom = 1.90355
Neighbor list builds = 21
Dangerous builds = 0
Finding SHAKE clusters ...
  0 = # of size 2 clusters
  0 = # of size 3 clusters
  0 = # of size 4 clusters
  1000 = # of frozen angles
PPPM initialization ...
  extracting TIP4P info from pair style
  using 12-bit tables for long-range coulomb (../kspace.cpp:321)
  G vector (1/distance) = 0.311414
  grid = 32 32 32
  stencil order = 5
  estimated absolute RMS force accuracy = 0.0032261
  estimated relative force accuracy = 9.71531e-06
  using double precision FFTs
  3d grid and FFT values/proc = 2475 256
Setting up Verlet run ...
  Unit style    : real
  Current step  : 0
  Time step     : 0.001
Per MPI rank memory allocation (min/avg/max) = 7.943 | 8.082 | 8.207 Mbytes
Step Temp E_pair E_mol TotEng Press Volume 
       0    436.54021   -21619.888            0   -18820.913   -1684855.3    38259.716 
   10000    176.76131   -20003.805            0    -18870.46    1665.6833    38085.558 
Loop time of 10.5887 on 128 procs for 10000 steps with 3152 atoms

Performance: 0.082 ns/day, 294.130 hours/ns, 944.405 timesteps/s
99.4% CPU use with 128 MPI tasks x no OpenMP threads

MPI task timing breakdown:
Section |  min time  |  avg time  |  max time  |%varavg| %total
---------------------------------------------------------------
Pair    | 0.43885    | 2.3849     | 4.1388     |  44.3 | 22.52
Bond    | 0.00094387 | 0.0011127  | 0.0020268  |   0.5 |  0.01
Kspace  | 4.1086     | 5.8476     | 7.8075     |  28.1 | 55.23
Neigh   | 0          | 0          | 0          |   0.0 |  0.00
Comm    | 0.84394    | 1.0192     | 1.3624     |  13.9 |  9.62
Output  | 9.3795e-05 | 9.6286e-05 | 0.00010064 |   0.0 |  0.00
Modify  | 1.1277     | 1.2077     | 1.2567     |   2.6 | 11.41
Other   |            | 0.1281     |            |       |  1.21

Nlocal:    24.625 ave 36 max 5 min
Histogram: 1 1 7 3 11 24 38 16 20 7
Nghost:    2562.77 ave 2681 max 2497 min
Histogram: 16 39 27 12 2 0 0 10 13 9
Neighs:    7984.71 ave 13438 max 1516 min
Histogram: 2 6 6 9 26 32 23 15 6 3

Total # of neighbors = 1022043
Ave neighs/atom = 324.252
Ave special neighs/atom = 1.90355
Neighbor list builds = 0
Dangerous builds = 0
PPPM initialization ...
  extracting TIP4P info from pair style
  using 12-bit tables for long-range coulomb (../kspace.cpp:321)
  G vector (1/distance) = 0.311523
  grid = 32 32 32
  stencil order = 5
  estimated absolute RMS force accuracy = 0.00321156
  estimated relative force accuracy = 9.67151e-06
  using double precision FFTs
  3d grid and FFT values/proc = 2475 256
Setting up Verlet run ...
  Unit style    : real
  Current step  : 10000
  Time step     : 0.01
Per MPI rank memory allocation (min/avg/max) = 7.943 | 8.082 | 8.207 Mbytes
Step Temp E_pair E_mol TotEng Press Volume 
   10000    176.76131   -20003.805            0    -18870.46   -49261.974    38085.558 
   20000    291.56459   -18827.153            0   -16957.722   -664.09609    38707.708 
Loop time of 9.18907 on 128 procs for 10000 steps with 3152 atoms

Performance: 0.940 ns/day, 25.525 hours/ns, 1088.250 timesteps/s
99.4% CPU use with 128 MPI tasks x no OpenMP threads

MPI task timing breakdown:
Section |  min time  |  avg time  |  max time  |%varavg| %total
---------------------------------------------------------------
Pair    | 0.4948     | 2.3428     | 3.7778     |  42.3 | 25.50
Bond    | 0.00092782 | 0.0011015  | 0.0020925  |   0.4 |  0.01
Kspace  | 3.1744     | 4.6607     | 6.4534     |  30.1 | 50.72
Neigh   | 0.00095057 | 0.00097923 | 0.0010016  |   0.0 |  0.01
Comm    | 0.80157    | 0.92128    | 1.058      |   6.5 | 10.03
Output  | 7.7395e-05 | 8.0752e-05 | 8.3476e-05 |   0.0 |  0.00
Modify  | 1.0819     | 1.1548     | 1.2021     |   2.5 | 12.57
Other   |            | 0.1073     |            |       |  1.17

Nlocal:    24.625 ave 36 max 7 min
Histogram: 1 1 5 8 13 32 33 20 11 4
Nghost:    2535.98 ave 2640 max 2472 min
Histogram: 6 40 32 13 4 1 0 10 11 11
Neighs:    7856.81 ave 12925 max 2054 min
Histogram: 1 7 3 18 22 35 17 15 7 3

Total # of neighbors = 1005672
Ave neighs/atom = 319.058
Ave special neighs/atom = 1.90355
Neighbor list builds = 3
Dangerous builds = 0
PPPM initialization ...
  extracting TIP4P info from pair style
  using 12-bit tables for long-range coulomb (../kspace.cpp:321)
  G vector (1/distance) = 0.311136
  grid = 32 32 32
  stencil order = 5
  estimated absolute RMS force accuracy = 0.00326353
  estimated relative force accuracy = 9.82802e-06
  using double precision FFTs
  3d grid and FFT values/proc = 2475 256
Setting up Verlet run ...
  Unit style    : real
  Current step  : 20000
  Time step     : 0.1
Per MPI rank memory allocation (min/avg/max) = 7.943 | 8.09 | 8.207 Mbytes
Step Temp E_pair E_mol TotEng Press Volume 
   20000    291.56459   -18827.152            0   -16957.721   -19523.762    38707.708 
   30000    293.85881   -18837.872            0   -16953.731    -317.1966    34685.784 
Loop time of 9.66125 on 128 procs for 10000 steps with 3152 atoms

Performance: 8.943 ns/day, 2.684 hours/ns, 1035.063 timesteps/s
99.4% CPU use with 128 MPI tasks x no OpenMP threads

MPI task timing breakdown:
Section |  min time  |  avg time  |  max time  |%varavg| %total
---------------------------------------------------------------
Pair    | 1.2278     | 2.5607     | 3.6495     |  28.2 | 26.50
Bond    | 0.0009502  | 0.0011146  | 0.0020587  |   0.4 |  0.01
Kspace  | 3.6198     | 4.6936     | 5.9632     |  20.7 | 48.58
Neigh   | 0.014678   | 0.014902   | 0.015131   |   0.1 |  0.15
Comm    | 0.92861    | 1.0302     | 1.1384     |   4.7 | 10.66
Output  | 0.00010146 | 0.00010362 | 0.00010786 |   0.0 |  0.00
Modify  | 1.1634     | 1.2252     | 1.2654     |   2.0 | 12.68
Other   |            | 0.1354     |            |       |  1.40

Nlocal:    24.625 ave 32 max 15 min
Histogram: 3 5 8 8 20 27 16 20 15 6
Nghost:    2801.4 ave 2832 max 2777 min
Histogram: 1 12 20 25 29 13 8 9 8 3
Neighs:    8813.02 ave 12183 max 4696 min
Histogram: 2 4 10 13 24 23 20 17 10 5

Total # of neighbors = 1128067
Ave neighs/atom = 357.889
Ave special neighs/atom = 1.90355
Neighbor list builds = 48
Dangerous builds = 0
PPPM initialization ...
  extracting TIP4P info from pair style
  using 12-bit tables for long-range coulomb (../kspace.cpp:321)
  G vector (1/distance) = 0.309124
  grid = 30 30 30
  stencil order = 5
  estimated absolute RMS force accuracy = 0.00390724
  estimated relative force accuracy = 1.17665e-05
  using double precision FFTs
  3d grid and FFT values/proc = 2475 256
Setting up Verlet run ...
  Unit style    : real
  Current step  : 30000
  Time step     : 0.2
Per MPI rank memory allocation (min/avg/max) = 7.948 | 8.158 | 8.216 Mbytes
Step Temp E_pair E_mol TotEng Press Volume 
   30000    293.85881   -18837.866            0   -16953.725      7110.62    34685.784 
   40000    302.27795   -19003.961            0   -17065.838    414.79053    34033.149 
Loop time of 9.4534 on 128 procs for 10000 steps with 3152 atoms

Performance: 18.279 ns/day, 1.313 hours/ns, 1057.821 timesteps/s
99.4% CPU use with 128 MPI tasks x no OpenMP threads

MPI task timing breakdown:
Section |  min time  |  avg time  |  max time  |%varavg| %total
---------------------------------------------------------------
Pair    | 1.5677     | 2.7178     | 3.5617     |  21.7 | 28.75
Bond    | 0.00093031 | 0.0011151  | 0.002155   |   0.5 |  0.01
Kspace  | 3.4856     | 4.3403     | 5.4825     |  17.1 | 45.91
Neigh   | 0.030565   | 0.030777   | 0.031013   |   0.1 |  0.33
Comm    | 0.94897    | 1.0426     | 1.1499     |   4.3 | 11.03
Output  | 8.1852e-05 | 8.5221e-05 | 9.0819e-05 |   0.0 |  0.00
Modify  | 0.93564    | 1.1402     | 1.2217     |   6.3 | 12.06
Other   |            | 0.1806     |            |       |  1.91

Nlocal:    24.625 ave 35 max 13 min
Histogram: 1 0 6 19 23 44 19 9 5 2
Nghost:    2796.79 ave 2822 max 2771 min
Histogram: 11 7 15 18 13 13 16 16 11 8
Neighs:    8817.45 ave 13641 max 4867 min
Histogram: 2 6 14 31 27 25 13 5 3 2

Total # of neighbors = 1128634
Ave neighs/atom = 358.069
Ave special neighs/atom = 1.90355
Neighbor list builds = 96
Dangerous builds = 0
PPPM initialization ...
  extracting TIP4P info from pair style
  using 12-bit tables for long-range coulomb (../kspace.cpp:321)
  G vector (1/distance) = 0.309582
  grid = 30 30 30
  stencil order = 5
  estimated absolute RMS force accuracy = 0.00383415
  estimated relative force accuracy = 1.15464e-05
  using double precision FFTs
  3d grid and FFT values/proc = 2475 256
Setting up Verlet run ...
  Unit style    : real
  Current step  : 40000
  Time step     : 0.5
Per MPI rank memory allocation (min/avg/max) = 7.952 | 8.194 | 8.217 Mbytes
Step Temp E_pair E_mol TotEng Press Volume 
   40000    302.27795   -19003.958            0   -17065.836    -3267.603    34033.149 
   50000    309.34846   -19214.382            0   -17230.925    288.25895    33748.529 
Loop time of 9.69648 on 128 procs for 10000 steps with 3152 atoms

Performance: 44.552 ns/day, 0.539 hours/ns, 1031.302 timesteps/s
99.4% CPU use with 128 MPI tasks x no OpenMP threads

MPI task timing breakdown:
Section |  min time  |  avg time  |  max time  |%varavg| %total
---------------------------------------------------------------
Pair    | 2.0154     | 2.758      | 3.5116     |  21.0 | 28.44
Bond    | 0.00093999 | 0.0011182  | 0.0021505  |   0.5 |  0.01
Kspace  | 3.6631     | 4.4329     | 5.1629     |  16.5 | 45.72
Neigh   | 0.076661   | 0.077403   | 0.078072   |   0.1 |  0.80
Comm    | 0.9884     | 1.0796     | 1.1949     |   4.2 | 11.13
Output  | 8.3876e-05 | 8.6613e-05 | 9.4196e-05 |   0.0 |  0.00
Modify  | 0.97949    | 1.1843     | 1.2639     |   6.3 | 12.21
Other   |            | 0.163      |            |       |  1.68

Nlocal:    24.625 ave 34 max 15 min
Histogram: 3 3 5 23 20 40 19 10 4 1
Nghost:    2826.36 ave 2860 max 2789 min
Histogram: 4 7 3 20 16 35 21 9 9 4
Neighs:    8911.7 ave 12532 max 4470 min
Histogram: 2 3 7 13 23 31 25 12 6 6

Total # of neighbors = 1140698
Ave neighs/atom = 361.897
Ave special neighs/atom = 1.90355
Neighbor list builds = 242
Dangerous builds = 0
PPPM initialization ...
  extracting TIP4P info from pair style
  using 12-bit tables for long-range coulomb (../kspace.cpp:321)
  G vector (1/distance) = 0.309785
  grid = 30 30 30
  stencil order = 5
  estimated absolute RMS force accuracy = 0.00380228
  estimated relative force accuracy = 1.14504e-05
  using double precision FFTs
  3d grid and FFT values/proc = 2475 256
Setting up Verlet run ...
  Unit style    : real
  Current step  : 0
  Time step     : 2
Per MPI rank memory allocation (min/avg/max) = 8.198 | 8.21 | 8.217 Mbytes
Step Temp E_pair E_mol TotEng Press Volume 
       0    309.34846   -19214.382            0   -17230.926   -139.99028    33748.529 
   10000    295.97066   -18960.677            0   -17062.995   -773.39539    34488.161 
   20000    297.13841   -19052.919            0    -17147.75   -110.95054      34426.6 
   30000    305.40771   -19058.646            0   -17100.456   -116.85928    34418.059 
   40000    293.95938   -19075.838            0   -17191.053   -209.87577    33918.233 
   50000    294.46807   -19157.178            0   -17269.131   -302.53066    34048.998 
   60000    296.67402   -19144.828            0   -17242.636   -188.26257    33799.971 
   70000    305.00395   -19004.473            0   -17048.872    -501.7971    34493.665 
   80000     299.0647   -19098.742            0   -17181.222    508.71163    34104.315 
   90000    302.21681   -19194.412            0   -17256.681   -293.56469    33629.515 
  100000    308.63754   -19055.188            0    -17076.29   -449.79087    33946.365 
  110000     300.9881   -18967.098            0   -17037.246    123.39853     33718.18 
  120000    286.78363   -19053.735            0   -17214.958   -337.65423    33891.564 
  130000    293.70861   -18975.135            0   -17091.957   -42.938032     33903.13 
  140000    297.06316   -19058.497            0   -17153.811   -776.16597    34394.527 
  150000     304.0369   -19103.458            0   -17154.058   -871.81142    33880.527 
  160000    297.58528   -19118.288            0   -17210.254      787.819    33660.498 
  170000    292.57478   -19053.611            0   -17177.702   -330.70862    34101.169 
  180000    296.99201   -19093.117            0   -17188.887   -241.27785    34044.632 
  190000     302.9907   -19132.372            0    -17189.68    305.98794    33851.962 
  200000     301.1038   -19023.229            0   -17092.635    6.8258217    34100.351 
  210000    303.20693   -19078.724            0   -17134.645   -246.91032    34262.507 
  220000    304.30439   -18965.004            0   -17013.889   -721.30232    34142.381 
  230000    288.21412   -19009.733            0   -17161.784    291.94553    33944.128 
  240000    302.91926   -19093.313            0   -17151.078    886.43705    33810.342 
  250000    300.55684    -19093.09            0   -17166.003   -325.42682    34132.526 
  260000    298.12777   -19091.077            0   -17179.565   -61.652323    33967.762 
  270000    292.35102   -19093.722            0   -17219.248   -359.69765     34009.49 
  280000    298.57039   -19001.705            0   -17087.355   -366.61618    34292.569 
  290000    298.91819    -18993.42            0    -17076.84   -586.01316    34194.587 
  300000    304.99814    -19061.35            0   -17105.787    63.682853     33879.46 
  310000    298.71232   -19062.242            0   -17146.982    53.052296    33702.258 
  320000    308.50265   -19128.175            0   -17150.142    426.35624    33444.963 
  330000    298.37484   -19086.689            0   -17173.593    55.665889    33592.089 
  340000    298.61828   -19094.273            0   -17179.616   -458.70969    34069.203 
  350000    295.47945   -19100.167            0   -17205.635    123.68441    33380.993 
  360000    302.84852   -19060.456            0   -17118.675    471.21144    34120.772 
  370000    294.41421   -19143.927            0   -17256.224   -835.99099    33904.399 
  380000    292.96623   -19156.041            0   -17277.623    16.134607    33636.379 
  390000    307.60345   -19086.706            0   -17114.438   -349.66823    34151.511 
  400000    300.45997   -19108.237            0   -17181.771     5.010855    33500.592 
  410000    289.57355   -19102.851            0   -17246.186    398.92037    33840.979 
  420000    295.14297   -19200.084            0    -17307.71   -617.30456    33919.702 
  430000    289.31335   -19032.267            0    -17177.27   -900.03775    33821.537 
  440000    296.15259   -19074.961            0   -17176.113    370.64251    33587.258 
  450000     307.9344   -19128.411            0   -17154.021    282.26522    33677.254 
  460000    292.09273   -19108.607            0   -17235.789    425.55638    33468.025 
  470000     298.9631   -19080.821            0   -17163.952    195.69864    34064.406 
  480000    302.02947   -19082.655            0   -17146.125    386.82346    33669.071 
  490000    305.87152   -19097.327            0   -17136.163    -83.32262    33831.391 
  500000    300.92628   -19112.164            0   -17182.708   -34.442167    33785.673 
  510000    295.22601   -19051.296            0   -17158.389   -357.88558    34220.696 
  520000    291.09738   -19048.979            0   -17182.543   -183.77798    33992.586 
  530000    290.03913   -19132.791            0    -17273.14    418.87247     33614.12 
  540000    296.83846   -19096.069            0   -17192.823    232.53679    33453.305 
  550000    303.22751   -19074.408            0   -17130.198    158.50219    34260.911 
  560000    290.78679   -19067.315            0   -17202.871    803.07401    33929.601 
  570000    297.02555   -19136.484            0   -17232.039   -153.16482     34088.82 
  580000    306.00961   -19089.268            0   -17127.219    704.33518    33521.008 
  590000    289.50221   -19147.156            0   -17290.948    346.59546    33444.603 
  600000    288.13721   -19033.315            0   -17185.859   -5.2174117     33706.09 
  610000    293.27127   -19006.206            0   -17125.832   -752.50972    34465.342 
  620000    301.79994   -19122.408            0   -17187.351   -106.16101    33793.537 
  630000    296.56829     -19164.7            0   -17263.187    -21.45207    33915.765 
  640000    296.80763   -19155.833            0   -17252.785    403.40474    33509.849 
  650000     301.6482    -19127.71            0   -17193.625   -445.85159    33886.422 
  660000    292.74212   -19123.508            0   -17246.527   -265.32646    34194.857 
  670000    301.04749   -19104.908            0   -17174.675    252.63798    33929.436 
  680000    301.60112   -19000.201            0   -17066.419   -564.14787    33874.858 
  690000    302.63315   -19059.763            0   -17119.363   -130.01569    34025.599 
  700000    301.68517   -19143.669            0   -17209.347    163.32026    33628.824 
  710000    298.67898   -19069.309            0   -17154.262    36.136899    34003.265 
  720000    297.69163   -19095.733            0   -17187.017   -618.46259    34249.598 
  730000    299.43161   -19127.223            0   -17207.351    557.02722    33511.759 
  740000    298.96675    -19093.45            0   -17176.558    749.24464    33762.616 
  750000    288.59381   -19144.725            0   -17294.341    381.97238    33531.947 
  760000    299.79265   -19018.718            0   -17096.531    512.58953    33909.946 
  770000    289.51989   -19215.075            0   -17358.754   -475.71766    33809.768 
  780000    293.62453   -19140.228            0   -17257.589   -147.52413    34312.721 
  790000    298.29488   -19000.243            0   -17087.659   -231.65068    33905.459 
  800000    303.09112   -18987.461            0   -17044.125   -175.39417    34215.813 
  810000    298.51022   -19118.484            0   -17204.519   -178.34455    34073.304 
  820000    297.51551   -19021.282            0   -17113.696   -325.99449     33866.35 
  830000    299.05745   -19096.487            0   -17179.013    28.827114    33546.409 
  840000    299.01757   -19144.529            0   -17227.311    107.75505    33930.699 
  850000    297.53492   -19059.308            0   -17151.597    263.66575    34067.757 
  860000    291.13362   -19193.293            0   -17326.625    772.79736    33174.747 
  870000    296.75554   -19157.293            0   -17254.579   -361.71371    33917.525 
  880000    293.42552   -19010.862            0   -17129.499    283.66665    34283.198 
  890000    302.66177   -19126.998            0   -17186.414   -519.10069    34005.174 
  900000      295.465   -18904.931            0   -17010.492   -236.82254    34079.987 
  910000    292.45901   -19096.215            0   -17221.049    93.873102    34167.514 
  920000    302.24535   -19048.031            0   -17110.117   -294.57451     33913.37 
  930000    301.45972   -19130.644            0   -17197.768    204.63224    33853.009 
  940000    298.65004   -18992.767            0   -17077.906     141.4467    33835.393 
  950000    304.32489   -19159.245            0   -17207.998    1283.1005    33481.744 
  960000    286.41433   -19057.218            0   -17220.809   -530.31131    34287.537 
  970000    307.60535   -19000.094            0   -17027.813   -759.58639    34163.701 
  980000    301.54112   -19065.228            0    -17131.83    236.64602    33830.859 
  990000    297.67972   -19101.096            0   -17192.456   -258.80359    33474.585 
 1000000     296.0462   -19170.613            0   -17272.447    902.48244    33782.028 
 1010000    302.05548   -19027.223            0   -17090.527   -575.54709    34354.521 
 1020000     291.2062   -19083.336            0   -17216.203   -46.468425    33975.651 
 1030000     289.5563   -19082.521            0   -17225.966   -906.13216    34043.741 
 1040000    300.20458   -19064.373            0   -17139.545    350.52745    34339.483 
 1050000    295.67884   -19087.142            0   -17191.331   -163.84763    34017.629 
 1060000    292.85093   -19074.425            0   -17196.746    -154.8489    34153.157 
 1070000    303.28385   -19114.314            0   -17169.742    928.27951    33548.097 
 1080000    302.94292   -19108.299            0   -17165.913   -303.53873    34344.842 
 1090000    303.73031   -19076.527            0   -17129.093    315.06564    34074.685 
 1100000     299.3283   -19023.475            0   -17104.265   -906.99962    34134.124 
 1110000    290.83366   -19107.885            0   -17243.141   -372.85619    34066.924 
 1120000    290.36439     -19093.2            0   -17231.464   -482.77346    33998.639 
 1130000    303.88947   -19034.504            0   -17086.049    134.43801    33754.456 
 1140000    299.10598   -19044.952            0   -17127.168    395.58204    33809.327 
 1150000    301.81152   -19162.926            0   -17227.794   -255.77083     34228.95 
 1160000    293.24925   -19070.599            0   -17190.366    978.67517    33600.703 
 1170000    293.43083   -19066.413            0   -17185.015    239.19848    34358.082 
 1180000    307.20736   -19097.091            0   -17127.363    549.90119    33516.522 
 1190000     289.6417   -19153.238            0   -17296.136    221.94314    33806.199 
 1200000    297.12062   -18920.371            0   -17015.316   -351.05679    33991.229 
 1210000    300.53366   -19123.445            0   -17196.507   -307.51465    33862.679 
 1220000    299.24019   -19044.418            0   -17125.773    556.60992    33889.188 
 1230000    298.26633   -19106.617            0   -17194.216   -109.93332    33966.831 
 1240000    302.63991   -19098.352            0   -17157.909   -225.67678    33587.533 
 1250000    306.26497   -19036.873            0   -17073.187    115.20146    34078.592 
 1260000     303.7664   -19169.524            0   -17221.858     887.6216     33362.49 
 1270000     308.4268   -19041.788            0   -17064.241    129.51408    33876.094 
 1280000    298.45148   -19104.284            0   -17190.696   -411.01385    34162.213 
 1290000    298.35701   -19115.908            0   -17202.926    61.190431    33874.994 
 1300000    304.59256   -19069.519            0   -17116.556   -164.50403    34161.271 
 1310000    293.42252    -19131.65            0   -17250.306   -229.05243    33470.902 
 1320000    295.58274   -19205.387            0   -17310.193    876.48235     33548.64 
 1330000    294.81352   -19093.673            0    -17203.41    155.44777    33772.227 
 1340000    295.00032   -19089.764            0   -17198.303    344.72525    33554.668 
 1350000     291.8385   -19138.777            0    -17267.59    425.23816    33508.995 
 1360000    297.15563   -19081.311            0   -17176.031   -439.26256    34221.968 
 1370000    300.73816   -19045.907            0   -17117.658   -446.64398    34076.364 
 1380000    298.57524   -19101.523            0   -17187.142    215.89701    34064.118 
 1390000    307.84283    -19073.92            0   -17100.117     133.1739    33937.666 
 1400000    292.50557   -18981.971            0   -17106.507    305.82982    33999.187 
 1410000    296.50429   -19157.803            0     -17256.7     185.7958    33449.358 
 1420000    293.29014   -19104.077            0   -17223.582   -234.00792    33718.415 
 1430000    304.08399   -19052.029            0   -17102.326    992.86782    33605.141 
 1440000    294.29585   -19038.804            0   -17151.861    18.358706    34127.963 
 1450000    300.06771   -19042.608            0   -17118.657    291.44974    33831.455 
 1460000    304.67165   -19073.855            0   -17120.385    611.69474    33814.266 
 1470000    299.62867    -19031.02            0   -17109.884   -329.00091    34077.981 
 1480000    296.84182   -19156.772            0   -17253.505   -131.81257    33963.086 
 1490000    295.21254   -19085.648            0   -17192.827   -368.48515    34408.832 
 1500000     299.8887   -19031.326            0   -17108.523    458.58762    33934.576 
 1510000    313.30837   -19092.472            0   -17083.626    507.53541    34157.091 
 1520000    297.18387   -19120.738            0   -17215.277    277.59001    33877.887 
 1530000    293.10688   -19151.883            0   -17272.563   -334.31476    34195.528 
 1540000    298.31401   -19154.131            0   -17241.424    37.847253    33773.794 
 1550000    299.18146   -19123.747            0   -17205.478    279.97322    33919.616 
 1560000    296.60974   -19091.824            0   -17190.044    488.69885    33558.589 
 1570000    294.70621   -18984.252            0   -17094.677    240.46463    33967.842 
 1580000    298.21745   -19121.341            0   -17209.254    478.40058    33742.743 
 1590000    302.08364   -19138.934            0   -17202.057    -704.4327    34206.878 
 1600000    298.14169   -18970.041            0   -17058.439   -966.25771    34539.681 
 1610000    293.80429   -19031.666            0   -17147.875   -135.47463    34100.515 
 1620000    293.15594    -19009.81            0   -17130.176    119.75399    34075.442 
 1630000    289.17035    -19143.47            0    -17289.39   -1137.5734    34284.471 
 1640000    294.80009   -19090.309            0   -17200.132    518.13965    33783.261 
 1650000    293.98401   -19106.831            0   -17221.887   -94.814189    33808.758 
 1660000    300.28075   -19025.662            0   -17100.345    177.41568    33986.767 
 1670000    300.38812    -19112.35            0   -17186.345    326.91732    33693.496 
 1680000    299.82468   -19050.799            0   -17128.407   -621.66934    33960.461 
 1690000     294.6497   -19031.701            0   -17142.489   -222.89891    33987.895 
 1700000    290.62633   -19132.564            0   -17269.149    397.44963    33568.803 
 1710000    286.15762   -19061.276            0   -17226.513   -281.57061    33957.517 
 1720000    298.37122   -18984.539            0   -17071.466   -936.36737    34180.582 
 1730000    291.76846   -19058.212            0   -17187.473   -259.34718    34020.043 
 1740000    305.54101   -19035.497            0   -17076.452   -206.95058    33970.708 
 1750000    309.04822    -19108.18            0   -17126.649   -441.12543    34022.157 
 1760000    301.92112   -19083.937            0   -17148.102    298.05622    33918.413 
 1770000    292.10287   -19056.994            0   -17184.112    28.072042     33784.51 
 1780000    294.11528    -19027.36            0   -17141.575   -225.76989    34140.721 
 1790000    294.06386   -19063.538            0   -17178.082    204.47591    33611.858 
 1800000    294.76564    -19069.38            0   -17179.425   -328.76198    34104.951 
 1810000    307.12635    -19112.65            0   -17143.441   -127.34605    34141.266 
 1820000    294.68041   -19181.101            0   -17291.692   -45.164659    33728.293 
 1830000    290.70414   -19062.877            0   -17198.963    240.13943    33721.957 
 1840000    298.08999   -19071.674            0   -17160.404   -147.39395    33973.515 
 1850000    302.86222   -19111.486            0   -17169.617   -860.29879    34353.944 
 1860000     290.8989   -19044.006            0   -17178.843    230.15551    33924.809 
 1870000    296.88788   -18968.507            0   -17064.945   -190.25192    34011.013 
 1880000    295.61026   -19123.641            0    -17228.27   -802.80786    34292.076 
 1890000    289.39114   -19147.013            0   -17291.518    64.083502    33868.419 
 1900000    296.80739   -19152.004            0   -17248.957    4.6141069    34005.447 
 1910000    298.47996   -19133.374            0   -17219.603    647.84087    33688.755 
 1920000    289.26261   -19029.748            0   -17175.077   -934.04634    34452.606 
 1930000    301.60927   -19018.637            0   -17084.802   -466.67001     34036.45 
 1940000    299.43947   -19183.799            0   -17263.876   -58.201438     33825.81 
 1950000    302.32318   -19137.201            0   -17198.789    404.81616    33674.862 
 1960000    294.68784   -19036.534            0   -17147.077   -214.08048    34508.977 
 1970000     292.4602   -19086.394            0    -17211.22   -126.17468    34256.402 
 1980000    295.76476   -18938.422            0   -17042.061     174.3717    34260.783 
 1990000     288.5758   -18951.444            0   -17101.176    338.30327    34179.378 
 2000000    308.11186   -19118.158            0   -17142.631   -458.81055     34205.56 
 2010000    299.59706    -19076.74            0   -17155.807   -784.20316    34432.215 
 2020000    295.16179    -19074.95            0   -17182.455    361.93077    33893.659 
 2030000    295.15169   -19098.081            0    -17205.65   -54.396807    34022.659 
 2040000     294.5563   -19078.192            0   -17189.579   -514.43687     34179.14 
 2050000    298.78005   -19096.955            0    -17181.26      555.819    33560.588 
 2060000    287.40577   -19138.671            0   -17295.905    141.57657    33609.493 
 2070000    293.76139   -19093.113            0   -17209.597    218.21449    33649.553 
 2080000    297.35599   -19047.368            0   -17140.804   -95.994014    34159.638 
 2090000    298.42942   -19057.937            0   -17144.491   -297.86635    34032.639 
 2100000    294.40025   -19158.279            0   -17270.667   -184.20445     34465.67 
 2110000    294.48613   -19008.766            0   -17120.603   -982.02956    33910.965 
 2120000    293.28259   -19132.748            0   -17252.302   -2.7801267    33477.635 
 2130000    305.31233   -19059.684            0   -17102.106    20.362392    33851.248 
 2140000    293.52397    -19119.86            0   -17237.866   -754.55967    33723.408 
 2150000    296.55051   -19101.978            0   -17200.579   -150.95823     33554.84 
 2160000     307.5847    -19100.79            0   -17128.642    191.58932    33723.029 
 2170000    299.68787   -19126.306            0   -17204.791   -185.39773    34475.509 
 2180000    297.27894   -18966.225            0   -17060.155   -203.21731    34043.056 
 2190000    288.12892   -19071.174            0   -17223.772   -544.01348     34095.59 
 2200000    299.34263    -19100.42            0   -17181.118    88.514447    33856.388 
 2210000    295.03477   -19097.713            0   -17206.032    161.75311    33725.051 
 2220000    289.93557   -18993.284            0   -17134.298     183.2014    33710.725 
 2230000    299.01541   -19104.867            0   -17187.664    78.550217    34150.942 
 2240000    294.48076   -19082.796            0   -17194.667    227.01371    34008.281 
 2250000    299.26753    -19125.81            0    -17206.99    798.70975    33720.034 
 2260000    293.62017   -19007.223            0   -17124.612    410.26471    33886.324 
 2270000    294.70058   -19202.742            0   -17313.204    856.09821    33734.505 
 2280000     301.1438   -19141.817            0   -17210.967    100.76828    33584.691 
 2290000    302.17124   -19064.183            0   -17126.745   -807.95852    34011.126 
 2300000    300.06276   -19057.126            0   -17133.207    295.30606     33940.36 
 2310000    296.15456   -19121.129            0   -17222.269    286.35586    33894.992 
 2320000    298.70198   -19122.337            0   -17207.143   -413.76339    33803.404 
 2330000    302.35046   -19115.177            0    -17176.59   -298.52756    33657.591 
 2340000    300.89182   -19110.229            0   -17180.994    1045.0969    33601.051 
 2350000     290.5135    -19059.85            0   -17197.158    688.19531      34012.6 
 2360000    295.31151   -19197.694            0   -17304.238    64.269624    34063.668 
 2370000    300.93001   -19098.587            0   -17169.108   -29.711706     34020.05 
 2380000     287.5633   -19085.394            0   -17241.618    -110.8643    34033.001 
 2390000    295.51475   -18956.268            0   -17061.509   -336.65124    34013.046 
 2400000    304.19291    -19197.92            0    -17247.52    426.08942    33754.403 
 2410000    293.47174   -19144.587            0   -17262.928   -357.73877    34303.859 
 2420000    302.46274   -19054.609            0   -17115.302    302.58299    33617.924 
 2430000    306.73338   -19052.793            0   -17086.104    3.7157313    34043.081 
 2440000    298.92511   -19101.964            0   -17185.339    40.725219    33607.035 
 2450000    303.71913   -19038.401            0   -17091.038   -1004.7412    34283.674 
 2460000    297.56987   -19104.235            0     -17196.3    1236.6652    33559.085 
 2470000    302.12541   -19069.216            0   -17132.071   -676.90321    34025.026 
 2480000    297.56547   -19086.097            0    -17178.19    -239.0415    34170.492 
 2490000    294.24128   -19031.743            0   -17145.149    47.470043    33889.803 
 2500000    300.44666   -19039.696            0   -17113.316   -636.40655    34187.258 
 2510000    298.06288   -19045.282            0   -17134.185   -503.26707    33992.879 
 2520000    288.65438    -19076.92            0   -17226.148   -339.78934    33783.782 
 2530000    298.14755   -19023.302            0   -17111.662    181.72606    34060.498 
 2540000    297.30885   -19046.433            0   -17140.171    -197.4913    34155.806 
 2550000    296.44071   -19146.602            0   -17245.906     137.6042    33715.625 
 2560000       307.57   -19022.776            0   -17050.722    681.36155    33642.951 
 2570000    298.34832    -19080.51            0   -17167.584    177.71832    33660.188 
 2580000    307.02278   -19123.924            0   -17155.379   -111.19826    33818.676 
 2590000    295.83667   -19096.232            0    -17199.41    756.23471    33873.053 
 2600000    292.12613   -19092.265            0   -17219.233    923.48326    33674.192 
 2610000    292.09622   -18981.488            0   -17108.648    197.95358    33994.987 
 2620000    299.12834   -19036.679            0   -17118.751    1100.5766    33393.656 
 2630000    294.84368   -19168.301            0   -17277.845   -315.94664    33579.308 
 2640000    297.25999   -19058.061            0   -17152.113    400.91741    33506.156 
 2650000      292.907    -19137.84            0   -17259.801   -374.26513    34103.553 
 2660000    294.75961   -19091.015            0   -17201.098   -247.73322    34019.999 
 2670000    301.11114   -19044.916            0   -17114.275   -218.16658    33659.331 
 2680000    295.37609   -19059.463            0   -17165.594   -176.18679    33560.158 
 2690000    293.12641   -19119.819            0   -17240.374    293.02765    34103.282 
 2700000    290.37532    -19085.71            0   -17223.904   -695.71815    33818.074 
 2710000    296.85483   -19086.694            0   -17183.344   -874.96959    34037.845 
 2720000    300.35576   -19111.399            0   -17185.601   -210.16219    33919.933 
 2730000    301.14366   -19048.703            0   -17117.854    44.978095    34296.448 
 2740000    290.84282   -19048.097            0   -17183.293    404.19075    33645.664 
 2750000    287.05429   -19094.269            0   -17253.757    368.57258    33647.085 
 2760000    298.93716   -19137.706            0   -17221.003    164.14218    34072.014 
 2770000    291.96429    -19068.76            0   -17196.766   -124.87061    34171.977 
 2780000    300.59903   -19062.956            0   -17135.599    567.82276    33729.522 
 2790000    292.85996   -19061.197            0    -17183.46   -27.418388    34151.571 
 2800000    302.74943   -18965.034            0   -17023.889    179.81461    34261.973 
 2810000    290.39952   -19039.714            0   -17177.753   -469.84642    34412.053 
 2820000    300.04715    -19123.59            0   -17199.771    362.03598    33822.067 
 2830000     290.8033   -19021.283            0   -17156.733    37.064666    34030.955 
 2840000    291.15047   -19112.197            0   -17245.421    -1067.635    33975.158 
 2850000    298.29527   -18990.722            0   -17078.135    135.26965    34030.031 
 2860000     297.5822   -19137.167            0   -17229.153    596.41714    33827.511 
 2870000    290.91877   -18970.736            0   -17105.445     -348.399    34180.797 
 2880000    298.57299   -19093.593            0   -17179.225    1493.1208    33586.544 
 2890000    291.65532   -19028.244            0   -17158.231   -199.93217     34114.26 
 2900000    297.23471   -19092.834            0   -17187.047   -661.52349    34070.167 
 2910000     300.3366   -19079.481            0   -17153.806   -665.36532    34442.444 
 2920000    300.27069   -19066.997            0   -17141.745    404.46407    33893.169 
 2930000    297.93271   -19082.671            0    -17172.41    133.22052    33966.401 
 2940000    298.45856    -19094.15            0   -17180.517   -366.22993    34185.443 
 2950000    297.24902   -19107.736            0   -17201.858   -428.88329    33648.939 
 2960000    299.44188   -19086.949            0   -17167.011    974.11368    33538.961 
 2970000    296.76097   -19134.264            0   -17231.515   -647.93459    33903.989 
 2980000    301.06291   -19149.543            0   -17219.211    172.41366    33832.454 
 2990000    299.21037   -19006.359            0   -17087.906     495.2554     33998.81 
 3000000    294.97823   -19110.534            0   -17219.216    600.73665    33712.548 
 3010000    298.87373   -19077.722            0   -17161.426   -547.31215     33842.89 
 3020000    302.13955   -19008.538            0   -17071.303    97.608262    33963.396 
 3030000    300.80293   -18977.478            0   -17048.814    233.58141    34151.195 
 3040000    286.07899   -19122.936            0   -17288.677   -197.74854    33554.827 
 3050000    294.16353   -19061.947            0   -17175.852   -825.11017    34154.541 
 3060000     293.7061    -19080.72            0   -17197.558    297.72425    33828.792 
 3070000    295.16914   -19127.854            0   -17235.311     714.3207    33585.906 
 3080000    297.34597   -19121.092            0   -17214.592   -285.04388    33617.136 
 3090000    301.99564   -18974.394            0   -17038.082    285.82724    34058.994 
 3100000    300.04987   -19055.698            0   -17131.862    354.76167     34223.37 
 3110000    296.71057   -19043.329            0   -17140.903   -435.11445    34107.199 
 3120000    303.44604    -19099.59            0   -17153.978   -876.10889    34068.312 
 3130000    289.28116   -19107.309            0   -17252.518   -456.36977    33870.941 
 3140000    299.91193   -19070.866            0   -17147.914   -466.54049    34144.889 
 3150000    308.72225   -19084.387            0   -17104.945    271.08802    33792.115 
 3160000    293.13785   -19083.961            0   -17204.443   -307.72088    34013.351 
 3170000     299.0397    -19061.48            0   -17144.121    714.70443    33622.192 
 3180000    303.82456   -19123.456            0   -17175.417    236.71917    33655.863 
 3190000    300.98567   -19048.653            0   -17118.816     855.2292    33519.679 
 3200000    307.66064   -19040.537            0   -17067.903   -112.93135    34128.764 
 3210000    292.30671    -19081.36            0    -17207.17    813.20741    33919.927 
 3220000    294.71848   -19009.464            0   -17119.811   -30.362046    33924.055 
 3230000    295.41699   -19062.969            0   -17168.837    558.04835    33756.691 
 3240000    292.95006    -18963.78            0   -17085.465   -12.719753    33988.007 
 3250000    303.06194   -19009.754            0   -17066.605    843.55008    33806.533 
 3260000    302.05299   -19123.739            0   -17187.059   -411.62545    33963.244 
 3270000    298.09734   -19082.235            0   -17170.918    80.926624    34090.774 
 3280000    296.10221   -19017.475            0   -17118.949   -175.69633    34467.261 
 3290000    298.99786    -19131.16            0   -17214.068   -926.02583    33974.954 
 3300000    290.83718    -19059.57            0   -17194.803      379.896    33857.795 
 3310000    299.06778   -19027.328            0   -17109.788     840.9391    33858.013 
 3320000    307.98815   -19113.572            0   -17138.838     26.69863    33685.894 
 3330000    293.31855   -19005.958            0   -17125.281   -1116.7909    34206.025 
 3340000    303.64079   -19007.322            0   -17060.462     12.76143    34326.747 
 3350000     291.8796   -19145.962            0   -17274.511    63.927191    33935.483 
 3360000     298.1327   -19117.814            0    -17206.27   -180.24723    34376.199 
 3370000     295.4656   -19077.494            0    -17183.05   -562.14202    33823.776 
 3380000    301.97927   -19095.038            0    -17158.83    -278.1086     34043.63 
 3390000    300.83503   -19076.234            0   -17147.363    164.20853    34083.245 
 3400000    299.81759   -19055.805            0   -17133.458   -819.71042    34137.013 
 3410000    293.35119   -19118.888            0   -17238.002   -507.03968    34373.368 
 3420000    296.12957    -19028.76            0   -17130.059   -226.93033    33940.712 
 3430000    306.77179   -19028.595            0   -17061.659   -108.44072    33987.456 
 3440000    299.64979   -19008.149            0   -17086.878    351.09364    34131.309 
 3450000    305.77749   -19075.064            0   -17114.503   -330.01939      33883.1 
 3460000    299.02977   -18985.991            0   -17068.695   -316.96275    34187.292 
 3470000    297.08594   -19045.018            0   -17140.185   -366.39028    33802.089 
 3480000    301.83919   -19048.172            0   -17112.863   -565.94633    34513.095 
 3490000    303.19974   -19120.304            0   -17176.271   -458.75268    33648.988 
 3500000    301.49741    -19022.63            0   -17089.512   -166.92954    34094.065 
 3510000    306.61723   -19051.632            0   -17085.688    18.837788    33735.366 
 3520000    298.29355   -19083.573            0   -17170.998    357.53305    33825.934 
 3530000    298.33932   -19099.428            0   -17186.559   -399.43297     33921.63 
 3540000    304.94072   -19127.624            0   -17172.429    872.40065     33175.57 
 3550000    299.75634   -19043.823            0   -17121.868   -121.34201    34212.569 
 3560000    303.21842   -19070.383            0   -17126.231    647.91605    33899.625 
 3570000    300.73436    -19061.67            0   -17133.445   -335.30302     34326.96 
 3580000    305.80955   -19098.579            0   -17137.813    334.32046    34030.737 
 3590000    299.57533   -19086.401            0   -17165.608   -411.62532    33840.084 
 3600000    298.55979     -19111.7            0   -17197.418   -481.81554    33959.364 
 3610000    295.54209    -19064.07            0   -17169.136    184.86822    33778.831 
 3620000    292.47761   -19085.869            0   -17210.583   -228.62321    33841.528 
 3630000     295.0975    -19144.58            0   -17252.497    192.11986    33846.171 
 3640000    304.14006   -19145.904            0   -17195.843   -74.957026    33886.675 
 3650000    310.08457     -19194.8            0   -17206.624    790.51523    33916.897 
 3660000    296.01569   -19003.669            0   -17105.698   -332.96139    34241.389 
 3670000    301.51654   -19040.169            0   -17106.928    901.93242    33991.164 
 3680000    307.58281   -19002.882            0   -17030.746   -60.353333    34380.917 
 3690000    293.81535    -19039.13            0   -17155.267   -187.47413    34005.602 
 3700000    307.07397   -19086.875            0   -17118.002    434.97568    33602.826 
 3710000    302.97954   -19016.091            0    -17073.47    74.223153     34314.94 
 3720000    303.16906    -19019.23            0   -17075.394   -1024.2251    34325.717 
 3730000    299.77514   -19123.228            0   -17201.153   -630.55313    34190.385 
 3740000    294.19003   -19088.803            0   -17202.538    530.60776    34050.746 
 3750000    295.82322   -19072.171            0   -17175.434   -153.25846    33768.954 
 3760000    297.34608   -19056.692            0   -17150.192    194.43218    33787.481 
 3770000    301.37729   -19078.476            0   -17146.129    191.19472     33683.47 
 3780000      299.532   -19080.351            0   -17159.835   -62.953295     33902.95 
 3790000    300.65503   -19030.078            0   -17102.362    -500.3346    34030.502 
 3800000    296.73277   -19074.832            0   -17172.264    627.85821    33452.027 
 3810000    295.53731   -19129.763            0    -17234.86   -378.84218     34138.26 
 3820000    301.77128   -19085.344            0   -17150.471    526.62705    33779.053 
 3830000    303.85524   -19218.226            0   -17269.991   -552.07671     34226.07 
 3840000     292.9713   -19021.913            0   -17143.462   -67.459392    34288.607 
 3850000    306.11667    -19084.46            0   -17121.725   -272.69799    33954.855 
 3860000    291.06323   -19099.234            0   -17233.017      1107.65    33725.705 
 3870000    293.18185   -19070.339            0   -17190.538    262.59862     33646.68 
 3880000     300.6147   -19155.634            0   -17228.176   -105.59111    34225.611 
 3890000    291.59525   -19052.285            0   -17182.657   -150.00304     33882.75 
 3900000    292.81798   -19107.616            0   -17230.149   -77.195382    33918.957 
 3910000    302.17652    -19000.27            0   -17062.798    951.07296    33951.884 
 3920000    293.56099   -19054.828            0   -17172.596    48.788821    34268.498 
 3930000    296.91347   -19085.692            0   -17181.965   -44.603324    34005.234 
 3940000    297.50946   -19053.684            0   -17146.136    918.11497    33782.678 
 3950000    302.12743   -19038.125            0   -17100.968   -50.987141    34063.598 
 3960000    300.46887   -19133.389            0   -17206.866    84.403953    34137.337 
 3970000    298.17373     -19114.8            0   -17202.993    124.21063    33766.777 
 3980000    303.71447   -19092.507            0   -17145.174   -71.579352    34274.569 
 3990000    294.16807   -19111.611            0   -17225.487    54.116231    33957.179 
 4000000     299.0079   -19077.662            0   -17160.506   -295.99876    33988.762 
 4010000    301.70257    -18972.56            0   -17038.127   -671.04335    34571.605 
 4020000    297.64774   -19070.657            0   -17162.222    367.35698    33890.051 
 4030000    303.35591   -19097.888            0   -17152.854    361.52429    33828.631 
 4040000    288.52678   -19098.001            0   -17248.047   -425.21992    34287.656 
 4050000    306.74164   -19115.884            0   -17149.142    178.73212    33913.568 
 4060000    291.40161   -19082.862            0   -17214.475    -695.3752    33859.908 
 4070000    303.78629   -19029.165            0   -17081.371    231.30321    34030.954 
 4080000    289.01942   -19175.458            0   -17322.346    357.34222    33876.752 
 4090000    297.48512   -19058.059            0   -17150.667   -230.91065    33821.951 
 4100000    295.43066   -19032.381            0   -17138.162    94.399389     34066.82 
 4110000    304.21367   -19087.858            0   -17137.324   -654.35621    34003.744 
 4120000    297.36584   -19133.161            0   -17226.534   -413.54444    33888.292 
 4130000    291.48725   -19067.024            0   -17198.089    129.01604    34265.036 
 4140000    296.65881   -19124.914            0    -17222.82    226.53055    33893.661 
 4150000     287.3143   -19055.794            0   -17213.614   -145.20637    33747.899 
 4160000    299.34209    -19137.55            0   -17218.252   -671.80017    34421.934 
 4170000    307.68581    -19101.67            0   -17128.874   -707.83522    34151.886 
 4180000    291.27581   -19123.811            0   -17256.231    441.17756    33770.823 
 4190000    300.06142    -19017.14            0   -17093.229    -359.8747    34184.987 
 4200000    302.59731   -18945.158            0   -17004.988   -233.64978    33977.989 
 4210000    299.58659   -19125.025            0   -17204.159    826.95124    33628.521 
 4220000    291.88388   -19055.671            0   -17184.192   -474.32963    33932.387 
 4230000    290.66132    -19155.08            0    -17291.44   -337.02865    33889.096 
 4240000    298.86548   -19090.528            0   -17174.286    291.69138    33534.613 
 4250000    302.40354   -19059.608            0    -17120.68    704.91825    33709.009 
 4260000    292.09187   -18971.615            0   -17098.803    562.18733    33852.706 
 4270000    304.39179   -19084.974            0   -17133.298    71.839301    34135.892 
 4280000    301.82648   -19067.224            0   -17131.997    59.122617    34167.725 
 4290000    297.32261   -19140.489            0   -17234.139    293.58655    33867.425 
 4300000    302.17304   -19114.609            0   -17177.159     -1045.04    34307.196 
 4310000    299.06488   -19064.477            0   -17146.956    464.93994    33809.527 
 4320000    308.17638   -19084.739            0   -17108.798   -143.87632    34091.098 
 4330000    299.75666    -19107.97            0   -17186.014   -280.59354     34199.78 
 4340000    303.95638   -19028.142            0   -17079.259    621.85948    33983.282 
 4350000    287.03045   -19014.361            0   -17174.001   -736.36167    34361.251 
 4360000    300.76793   -19163.798            0   -17235.357    7.2909754    33814.927 
 4370000    295.03202   -19145.468            0   -17253.805    589.98115    33922.326 
 4380000    305.50215   -19072.228            0   -17113.433    298.92495    33643.385 
 4390000    292.32124   -19068.461            0   -17194.178   -862.83554    34316.369 
 4400000    297.67198   -19046.486            0   -17137.896    16.154389    34047.761 
 4410000    301.57675   -19102.411            0   -17168.785    349.03162    33718.089 
 4420000    304.97218   -18921.236            0   -16965.839   -171.46724     34099.54 
 4430000    286.85894   -19095.213            0   -17255.953    313.52076    34229.383 
 4440000    299.44287   -19035.723            0   -17115.779    76.107357     33931.31 
 4450000    296.64404   -19122.963            0   -17220.964    438.23803    33731.979 
 4460000    294.05782    -19057.32            0   -17171.903   -93.984052     33898.96 
 4470000    293.45799   -19008.002            0   -17126.431    130.51955    33740.299 
 4480000    290.41575   -18941.218            0   -17079.153   -372.46735    34088.433 
 4490000    296.46654   -19071.603            0   -17170.742   -198.47625    33812.571 
 4500000    301.56559   -19096.123            0   -17162.568   -751.09187    33980.251 
 4510000       302.62   -19097.515            0   -17157.199    553.90106    33679.329 
 4520000      295.211   -19030.878            0   -17138.067    143.14901    33749.887 
 4530000    307.21986   -19077.137            0   -17107.328   -59.059646    34028.094 
 4540000     295.3135   -19054.838            0    -17161.37   -833.59706    33833.696 
 4550000    299.22655   -19124.767            0    -17206.21      681.477    33803.441 
 4560000    295.15873   -19075.087            0   -17182.612   -183.60411    34082.224 
 4570000    303.53316   -19012.135            0   -17065.964    405.41237     33818.93 
 4580000    292.52206   -19088.297            0   -17212.727   -311.82791    34150.647 
 4590000    285.69707     -19105.7            0   -17273.889    -175.3181    33856.424 
 4600000    299.16001   -19030.776            0   -17112.645   -493.18721    34181.738 
 4610000    291.24184   -19102.541            0   -17235.179   -520.83477    34226.102 
 4620000    296.61076   -19196.517            0   -17294.732   -495.39487    34084.292 
 4630000    304.94628   -19071.344            0   -17116.113    283.53047     33942.17 
 4640000    306.20718   -19127.408            0   -17164.092   -44.019217    33953.391 
 4650000    301.30942   -19125.641            0   -17193.728    163.46915    34056.183 
 4660000     295.7843   -19156.783            0   -17260.297    861.85077    33466.478 
 4670000     296.5241   -19114.067            0   -17212.837    191.84886    33803.737 
 4680000    294.83743   -19139.209            0   -17248.794     312.6296     34285.39 
 4690000    299.63743   -19033.185            0   -17111.993    253.85562    33720.921 
 4700000    302.36709   -19032.214            0    -17093.52   -784.37695    34144.002 
 4710000    302.70373    -19118.51            0   -17177.658    95.787569    33740.706 
 4720000    298.14385   -19027.067            0   -17115.452   -401.87712    34162.841 
 4730000    299.36927   -19117.577            0   -17198.104    471.57634    33503.492 
 4740000    303.58085   -19071.265            0   -17124.789    396.26552    33934.801 
 4750000    294.06589   -19125.787            0   -17240.318   -591.81582    33720.742 
 4760000    297.22459   -19215.839            0   -17310.117     531.5562     33599.35 
 4770000    295.20831   -19093.287            0   -17200.493   -221.55677    34035.057 
 4780000    297.05386   -19024.756            0   -17120.129    912.85547    33926.806 
 4790000     295.4274   -19066.329            0   -17172.131   -655.03543    34207.029 
 4800000    303.74437   -19078.688            0   -17131.163    64.508615    34084.453 
 4810000     305.0872   -19090.164            0    -17134.03    1722.5552    33574.809 
 4820000    297.49798   -19054.841            0   -17147.367    339.97705     33966.69 
 4830000     296.7151   -19113.126            0   -17210.671    460.30976     34081.47 
 4840000    302.80244   -19108.793            0   -17167.308    58.454586    34361.941 
 4850000    311.52924    -19104.67            0   -17107.231   -456.55123    34449.118 
 4860000     294.8394   -19026.434            0   -17136.005    473.99408    33348.881 
 4870000    299.59106   -18991.528            0   -17070.634   -242.76423    33888.889 
 4880000    293.57225   -19081.725            0   -17199.421    806.56087    33814.754 
 4890000    299.07845   -19157.524            0   -17239.916    841.37958    33511.772 
 4900000    297.60741   -19051.663            0   -17143.487   -390.44444    34058.541 
 4910000    302.82527   -19063.511            0   -17121.879    560.27431    33853.242 
 4920000    306.23693   -19141.662            0   -17178.155   -420.80934    34150.143 
 4930000     294.6771   -19037.714            0   -17148.326   -122.78779    33703.118 
 4940000    299.00487   -19046.201            0   -17129.065   -63.310422    34036.314 
 4950000    295.92315   -18952.739            0   -17055.362   -618.41964    34311.832 
 4960000    289.64355    -19076.55            0   -17219.436    158.52555    34204.313 
 4970000    303.76676   -19164.911            0   -17217.243    86.231676     33811.65 
 4980000    297.44202   -19189.571            0   -17282.455   -218.56258    33803.883 
 4990000     290.2627    -19073.45            0   -17212.366   -6.1404902    33943.246 
 5000000    293.60076   -19068.084            0   -17185.597   -683.60926    34351.737 
Loop time of 5145.19 on 128 procs for 5000000 steps with 3152 atoms

Performance: 167.924 ns/day, 0.143 hours/ns, 971.781 timesteps/s
99.3% CPU use with 128 MPI tasks x no OpenMP threads

MPI task timing breakdown:
Section |  min time  |  avg time  |  max time  |%varavg| %total
---------------------------------------------------------------
Pair    | 1171.7     | 1408.5     | 1606.4     | 293.1 | 27.38
Bond    | 0.48124    | 0.56975    | 1.0416     |   9.8 |  0.01
Kspace  | 2120.5     | 2318.9     | 2532.8     | 225.1 | 45.07
Neigh   | 146.77     | 147.97     | 149.18     |   3.6 |  2.88
Comm    | 529.1      | 573.65     | 627.89     |  90.7 | 11.15
Output  | 0.042147   | 0.042627   | 0.044048   |   0.1 |  0.00
Modify  | 508.96     | 611.66     | 652.29     | 137.0 | 11.89
Other   |            | 83.87      |            |       |  1.63

Nlocal:    24.625 ave 33 max 15 min
Histogram: 2 2 9 20 12 33 21 22 5 2
Nghost:    2806.59 ave 2839 max 2765 min
Histogram: 1 1 12 14 26 18 21 15 16 4
Neighs:    8814.22 ave 12208 max 4693 min
Histogram: 1 2 8 16 25 26 24 15 8 3

Total # of neighbors = 1128220
Ave neighs/atom = 357.938
Ave special neighs/atom = 1.90355
Neighbor list builds = 435542
Dangerous builds = 0
PPPM initialization ...
  extracting TIP4P info from pair style
  using 12-bit tables for long-range coulomb (../kspace.cpp:321)
  G vector (1/distance) = 0.309357
  grid = 30 30 30
  stencil order = 5
  estimated absolute RMS force accuracy = 0.00386982
  estimated relative force accuracy = 1.16539e-05
  using double precision FFTs
  3d grid and FFT values/proc = 2475 256
Setting up Verlet run ...
  Unit style    : real
  Current step  : 0
  Time step     : 2
Per MPI rank memory allocation (min/avg/max) = 8.199 | 8.21 | 8.217 Mbytes
Density 
   1.1447305 
   1.1537978 
   1.1726494 
   1.1447316 
   1.1536947 
   1.1551016 
   1.1653702 
   1.1647549 
   1.1509078 
   1.1597344 
   1.1425812 
   1.1543064 
    1.157553 
   1.1669073 
   1.1521248 
   1.1737785 
   1.1700882 
   1.1450126 
   1.1611621 
   1.1588242 
     1.16549 
   1.1570459 
   1.1530431 
   1.1599519 
    1.158183 
   1.1745145 
   1.1497331 
   1.1650173 
   1.1578246 
   1.1520134 
   1.1510276 
   1.1597888 
   1.1580331 
   1.1638288 
   1.1485635 
   1.1529154 
   1.1614471 
   1.1547332 
    1.163037 
   1.1547198 
   1.1571788 
   1.1547546 
   1.1603233 
   1.1686982 
   1.1607809 
   1.1512522 
   1.1438424 
   1.1573148 
     1.15189 
    1.169251 
   1.1431337 
   1.1551832 
   1.1451357 
   1.1660052 
   1.1568108 
   1.1538522 
   1.1701814 
   1.1687224 
    1.152703 
   1.1746416 
   1.1552774 
   1.1561364 
   1.1613898 
   1.1648905 
   1.1508866 
   1.1617275 
   1.1626742 
   1.1668232 
   1.1425541 
   1.1621773 
   1.1588446 
   1.1559101 
   1.1564622 
   1.1492225 
   1.1465327 
   1.1507908 
   1.1445049 
   1.1487796 
    1.161445 
   1.1583336 
   1.1668867 
   1.1650789 
    1.149193 
   1.1574367 
    1.149869 
   1.1690195 
   1.1729016 
   1.1640244 
   1.1631799 
   1.1604473 
   1.1563407 
   1.1470891 
   1.1543578 
   1.1609531 
    1.158359 
   1.1488798 
   1.1469746 
    1.158668 
   1.1683792 
   1.1593194 
   1.1593727 
   1.1578174 
   1.1636688 
   1.1679297 
   1.1587559 
   1.1579078 
      1.1582 
   1.1498752 
    1.156734 
   1.1539542 
   1.1571387 
    1.167911 
   1.1504328 
   1.1619658 
   1.1604586 
   1.1609204 
   1.1723158 
   1.1608829 
   1.1514858 
   1.1532239 
   1.1631795 
   1.1588932 
   1.1625528 
   1.1759885 
   1.1618064 
    1.141989 
    1.172394 
   1.1457694 
   1.1514745 
   1.1593064 
   1.1487454 
   1.1501979 
   1.1580368 
   1.1574327 
   1.1576997 
    1.153213 
    1.150803 
   1.1703782 
    1.152335 
   1.1547447 
   1.1686537 
    1.157493 
   1.1584909 
   1.1625327 
    1.164657 
    1.149953 
   1.1519106 
   1.1746308 
   1.1538284 
   1.1541929 
   1.1607904 
   1.1512514 
   1.1497827 
   1.1668343 
   1.1558277 
   1.1562797 
    1.154614 
   1.1619296 
   1.1584342 
   1.1451727 
   1.1753097 
   1.1654577 
   1.1666469 
   1.1650035 
   1.1664645 
   1.1499731 
   1.1586162 
   1.1571298 
    1.132268 
   1.1461123 
   1.1599992 
   1.1523847 
   1.1542932 
   1.1476183 
   1.1663939 
   1.1417106 
   1.1645073 
   1.1571065 
   1.1589947 
   1.1491358 
    1.164526 
   1.1628882 
   1.1475371 
   1.1557204 
   1.1478407 
   1.1658463 
    1.143316 
   1.1629711 
    1.150887 
    1.171312 
   1.1557083 
   1.1582618 
   1.1579582 
   1.1606038 
   1.1626434 
   1.1465305 
   1.1537329 
    1.151471 
   1.1677283 
    1.165325 
   1.1608476 
    1.152566 
   1.1607098 
   1.1617619 
   1.1511913 
   1.1649224 
   1.1468139 
   1.1575127 
   1.1454637 
   1.1719841 
    1.156861 
   1.1701356 
   1.1403132 
   1.1636767 
   1.1598695 
   1.1568582 
   1.1466744 
   1.1533367 
   1.1669558 
   1.1632201 
   1.1650295 
   1.1528969 
   1.1480624 
   1.1515131 
   1.1488693 
   1.1591537 
   1.1592834 
   1.1599289 
   1.1754831 
   1.1759794 
    1.160908 
   1.1533101 
   1.1617484 
   1.1472402 
   1.1489576 
   1.1476246 
   1.1641005 
   1.1588594 
   1.1582817 
    1.164827 
   1.1525655 
   1.1664555 
   1.1503777 
    1.166732 
   1.1601798 
   1.1663878 
   1.1571538 
   1.1486925 
   1.1583516 
   1.1597944 
   1.1661373 
   1.1705321 
   1.1582372 
   1.1535294 
   1.1629138 
    1.169637 
    1.169578 
   1.1599286 
   1.1586895 
   1.1573622 
   1.1563384 
   1.1570242 
   1.1488427 
   1.1420488 
   1.1604446 
   1.1599742 
   1.1543846 
   1.1534663 
   1.1488652 
   1.1533588 
   1.1615219 
   1.1651733 
   1.1437991 
   1.1464386 
   1.1589999 
   1.1641974 
   1.1595618 
   1.1540643 
   1.1784458 
   1.1671829 
   1.1585239 
   1.1486686 
   1.1528378 
   1.1477457 
   1.1531609 
   1.1699213 
   1.1607081 
   1.1515709 
   1.1615897 
   1.1424293 
   1.1615623 
   1.1728274 
    1.162777 
   1.1560381 
   1.1650584 
   1.1659152 
   1.1520814 
   1.1643918 
   1.1581928 
   1.1537325 
   1.1628112 
   1.1564006 
   1.1657867 
   1.1618008 
   1.1582855 
   1.1564992 
    1.158068 
   1.1550222 
   1.1526076 
   1.1659484 
   1.1676987 
   1.1633741 
   1.1550695 
   1.1546669 
   1.1599007 
   1.1612361 
   1.1614326 
     1.16277 
    1.159552 
   1.1499945 
   1.1619797 
   1.1557862 
   1.1516612 
   1.1599746 
   1.1492888 
   1.1560689 
   1.1708987 
    1.148598 
   1.1713015 
   1.1529209 
   1.1521267 
   1.1534763 
   1.1599118 
   1.1624737 
   1.1590922 
   1.1671618 
   1.1695916 
   1.1789908 
   1.1690285 
   1.1452064 
   1.1646471 
   1.1600362 
   1.1621654 
   1.1470562 
   1.1541803 
   1.1641681 
   1.1529695 
   1.1508232 
   1.1633858 
   1.1539404 
    1.152246 
   1.1595859 
    1.180994 
   1.1365816 
   1.1661634 
   1.1593727 
   1.1655566 
   1.1590141 
   1.1724694 
   1.1575639 
    1.149629 
   1.1629348 
   1.1708447 
   1.1535946 
   1.1388151 
   1.1531752 
   1.1779023 
   1.1538509 
    1.157707 
   1.1539521 
   1.1548171 
   1.1631428 
   1.1529197 
   1.1608491 
    1.167824 
   1.1498581 
   1.1556495 
   1.1751376 
   1.1615601 
   1.1640455 
   1.1694455 
   1.1634936 
    1.173928 
   1.1557761 
   1.1581319 
   1.1526868 
   1.1526963 
    1.145301 
   1.1657004 
   1.1455366 
   1.1462886 
   1.1753774 
   1.1545241 
   1.1411333 
   1.1564201 
   1.1573276 
   1.1596093 
   1.1659081 
   1.1509997 
   1.1659244 
   1.1509136 
   1.1678522 
   1.1551613 
    1.153132 
   1.1642998 
   1.1739175 
   1.1671642 
   1.1594687 
   1.1641015 
   1.1553751 
   1.1588825 
   1.1660732 
   1.1538675 
   1.1748918 
   1.1597363 
     1.16696 
   1.1506864 
   1.1571324 
   1.1626151 
   1.1718129 
   1.1655363 
   1.1688535 
   1.1584901 
   1.1558538 
   1.1477483 
   1.1602689 
   1.1617728 
   1.1541702 
   1.1558786 
   1.1530588 
   1.1628172 
   1.1604096 
   1.1519983 
   1.1760869 
   1.1532528 
   1.1674965 
   1.1688329 
   1.1565266 
   1.1587257 
   1.1704814 
   1.1617691 
    1.140397 
   1.1530368 
   1.1462058 
   1.1779782 
   1.1421114 
   1.1492976 
   1.1513813 
   1.1596624 
     1.15067 
   1.1591698 
   1.1655946 
   1.1604015 
   1.1624317 
   1.1557034 
   1.1532614 
    1.160858 
   1.1543409 
   1.1627057 
    1.156135 
   1.1591069 
   1.1486086 
   1.1652729 
   1.1526005 
   1.1582872 
   1.1671063 
   1.1524295 
   1.1686686 
   1.1595484 
   1.1423991 
   1.1527182 
   1.1670018 
   1.1456896 
   1.1387554 
   1.1487455 
   1.1689699 
   1.1567475 
   1.1510098 
   1.1507225 
   1.1645606 
   1.1733733 
   1.1573843 
   1.1550776 
   1.1599906 
   1.1587823 
   1.1687729 
   1.1621818 
   1.1600482 
   1.1519254 
   1.1650862 
   1.1754381 
   1.1787662 
   1.1528498 
   1.1711091 
   1.1658342 
   1.1491151 
   1.1423413 
    1.153626 
    1.158518 
    1.161714 
   1.1511777 
Loop time of 5188.41 on 128 procs for 5000000 steps with 3152 atoms

Performance: 166.525 ns/day, 0.144 hours/ns, 963.687 timesteps/s
99.3% CPU use with 128 MPI tasks x no OpenMP threads

MPI task timing breakdown:
Section |  min time  |  avg time  |  max time  |%varavg| %total
---------------------------------------------------------------
Pair    | 1177       | 1408.6     | 1611.9     | 293.0 | 27.15
Bond    | 0.47977    | 0.56983    | 1.0459     |  10.0 |  0.01
Kspace  | 2111.7     | 2318.2     | 2540.6     | 225.3 | 44.68
Neigh   | 146.58     | 147.92     | 148.96     |   4.5 |  2.85
Comm    | 525.86     | 570.71     | 624.1      |  91.8 | 11.00
Output  | 0.018483   | 0.025377   | 0.039983   |   2.6 |  0.00
Modify  | 557.12     | 658.96     | 699.77     | 132.1 | 12.70
Other   |            | 83.51      |            |       |  1.61

Nlocal:    24.625 ave 35 max 14 min
Histogram: 3 1 8 22 28 33 16 13 2 2
Nghost:    2818.67 ave 2851 max 2789 min
Histogram: 7 5 16 16 19 30 16 14 2 3
Neighs:    8862.81 ave 12682 max 4450 min
Histogram: 3 0 9 12 33 20 31 13 2 5

Total # of neighbors = 1134440
Ave neighs/atom = 359.911
Ave special neighs/atom = 1.90355
Neighbor list builds = 435545
Dangerous builds = 0
Changing box ...
  orthogonal box = (0.624761 0.624761 0.624761) to (32.9986 33.0714 33.0714)
  orthogonal box = (0.624761 0.624761 0.624761) to (32.9986 32.9986 33.0714)
  orthogonal box = (0.624761 0.624761 0.624761) to (32.9986 32.9986 32.9986)
PPPM initialization ...
  extracting TIP4P info from pair style
  using 12-bit tables for long-range coulomb (../kspace.cpp:321)
  G vector (1/distance) = 0.309655
  grid = 30 30 30
  stencil order = 5
  estimated absolute RMS force accuracy = 0.00382258
  estimated relative force accuracy = 1.15116e-05
  using double precision FFTs
  3d grid and FFT values/proc = 2475 256
Setting up Verlet run ...
  Unit style    : real
  Current step  : 0
  Time step     : 0.001
Per MPI rank memory allocation (min/avg/max) = 8.199 | 8.21 | 8.218 Mbytes
Density 
   1.1589643 
   1.1589643 
Loop time of 7.80346 on 128 procs for 10000 steps with 3152 atoms

Performance: 0.111 ns/day, 216.763 hours/ns, 1281.483 timesteps/s
99.4% CPU use with 128 MPI tasks x no OpenMP threads

MPI task timing breakdown:
Section |  min time  |  avg time  |  max time  |%varavg| %total
---------------------------------------------------------------
Pair    | 1.0706     | 2.0672     | 2.955      |  24.2 | 26.49
Bond    | 0.00072194 | 0.00084004 | 0.0028752  |   0.0 |  0.01
Kspace  | 2.969      | 3.8489     | 4.8288     |  17.3 | 49.32
Neigh   | 0          | 0          | 0          |   0.0 |  0.00
Comm    | 0.96921    | 1.0632     | 1.137      |   3.4 | 13.63
Output  | 3.0377e-05 | 4.3841e-05 | 6.8728e-05 |   0.0 |  0.00
Modify  | 0.64375    | 0.71088    | 0.76132    |   3.5 |  9.11
Other   |            | 0.1124     |            |       |  1.44

Nlocal:    24.625 ave 33 max 15 min
Histogram: 3 2 8 16 17 35 20 16 9 2
Nghost:    2835.46 ave 2873 max 2805 min
Histogram: 7 6 19 23 20 21 19 7 3 3
Neighs:    8923.66 ave 12299 max 4751 min
Histogram: 3 0 7 11 28 25 26 15 9 4

Total # of neighbors = 1142229
Ave neighs/atom = 362.382
Ave special neighs/atom = 1.90355
Neighbor list builds = 0
Dangerous builds = 0
PPPM initialization ...
  extracting TIP4P info from pair style
  using 12-bit tables for long-range coulomb (../kspace.cpp:321)
  G vector (1/distance) = 0.309655
  grid = 30 30 30
  stencil order = 5
  estimated absolute RMS force accuracy = 0.00382258
  estimated relative force accuracy = 1.15116e-05
  using double precision FFTs
  3d grid and FFT values/proc = 2475 256
Setting up Verlet run ...
  Unit style    : real
  Current step  : 10000
  Time step     : 0.01
Per MPI rank memory allocation (min/avg/max) = 8.199 | 8.21 | 8.218 Mbytes
Density 
   1.1589643 
   1.1589643 
Loop time of 7.7499 on 128 procs for 10000 steps with 3152 atoms

Performance: 1.115 ns/day, 21.528 hours/ns, 1290.339 timesteps/s
99.4% CPU use with 128 MPI tasks x no OpenMP threads

MPI task timing breakdown:
Section |  min time  |  avg time  |  max time  |%varavg| %total
---------------------------------------------------------------
Pair    | 1.104      | 2.0663     | 2.8836     |  23.9 | 26.66
Bond    | 0.0007194  | 0.00082092 | 0.0015419  |   0.0 |  0.01
Kspace  | 2.9828     | 3.7933     | 4.7005     |  17.3 | 48.95
Neigh   | 0.0011814  | 0.0012     | 0.0012252  |   0.0 |  0.02
Comm    | 0.95831    | 1.0625     | 1.136      |   3.6 | 13.71
Output  | 3.2792e-05 | 4.8046e-05 | 7.2094e-05 |   0.0 |  0.00
Modify  | 0.6452     | 0.71485    | 0.76979    |   3.5 |  9.22
Other   |            | 0.1109     |            |       |  1.43

Nlocal:    24.625 ave 33 max 16 min
Histogram: 3 8 12 10 30 27 10 17 9 2
Nghost:    2831.28 ave 2858 max 2796 min
Histogram: 8 3 6 9 22 18 19 19 15 9
Neighs:    8923.7 ave 12250 max 5358 min
Histogram: 5 4 8 17 29 22 15 16 9 3

Total # of neighbors = 1142234
Ave neighs/atom = 362.384
Ave special neighs/atom = 1.90355
Neighbor list builds = 4
Dangerous builds = 0
PPPM initialization ...
  extracting TIP4P info from pair style
  using 12-bit tables for long-range coulomb (../kspace.cpp:321)
  G vector (1/distance) = 0.309655
  grid = 30 30 30
  stencil order = 5
  estimated absolute RMS force accuracy = 0.00382258
  estimated relative force accuracy = 1.15116e-05
  using double precision FFTs
  3d grid and FFT values/proc = 2475 256
Setting up Verlet run ...
  Unit style    : real
  Current step  : 20000
  Time step     : 0.1
Per MPI rank memory allocation (min/avg/max) = 8.199 | 8.21 | 8.218 Mbytes
Density 
   1.1589643 
   1.1589643 
Loop time of 7.98379 on 128 procs for 10000 steps with 3152 atoms

Performance: 10.822 ns/day, 2.218 hours/ns, 1252.538 timesteps/s
99.4% CPU use with 128 MPI tasks x no OpenMP threads

MPI task timing breakdown:
Section |  min time  |  avg time  |  max time  |%varavg| %total
---------------------------------------------------------------
Pair    | 1.3404     | 2.0762     | 2.7251     |  18.9 | 26.00
Bond    | 0.00072454 | 0.00081934 | 0.0013689  |   0.0 |  0.01
Kspace  | 3.0841     | 3.7604     | 4.4638     |  13.8 | 47.10
Neigh   | 0.013594   | 0.013686   | 0.01379    |   0.0 |  0.17
Comm    | 0.9827     | 1.1253     | 1.3833     |   8.7 | 14.09
Output  | 4.3691e-05 | 6.0779e-05 | 0.00010023 |   0.0 |  0.00
Modify  | 0.65285    | 0.89189    | 0.97349    |   9.4 | 11.17
Other   |            | 0.1154     |            |       |  1.45

Nlocal:    24.625 ave 32 max 17 min
Histogram: 3 1 13 16 30 15 28 11 8 3
Nghost:    2819.33 ave 2853 max 2795 min
Histogram: 3 16 20 28 19 20 12 3 3 4
Neighs:    8922.25 ave 12512 max 6303 min
Histogram: 5 12 26 17 26 19 12 5 1 5

Total # of neighbors = 1142048
Ave neighs/atom = 362.325
Ave special neighs/atom = 1.90355
Neighbor list builds = 44
Dangerous builds = 0
PPPM initialization ...
  extracting TIP4P info from pair style
  using 12-bit tables for long-range coulomb (../kspace.cpp:321)
  G vector (1/distance) = 0.309655
  grid = 30 30 30
  stencil order = 5
  estimated absolute RMS force accuracy = 0.00382258
  estimated relative force accuracy = 1.15116e-05
  using double precision FFTs
  3d grid and FFT values/proc = 2475 256
Setting up Verlet run ...
  Unit style    : real
  Current step  : 30000
  Time step     : 0.2
Per MPI rank memory allocation (min/avg/max) = 8.199 | 8.21 | 8.218 Mbytes
Density 
   1.1589643 
   1.1589643 
Loop time of 7.81662 on 128 procs for 10000 steps with 3152 atoms

Performance: 22.107 ns/day, 1.086 hours/ns, 1279.326 timesteps/s
99.4% CPU use with 128 MPI tasks x no OpenMP threads

MPI task timing breakdown:
Section |  min time  |  avg time  |  max time  |%varavg| %total
---------------------------------------------------------------
Pair    | 1.509      | 2.0848     | 2.7244     |  18.2 | 26.67
Bond    | 0.0007216  | 0.00081974 | 0.001461   |   0.0 |  0.01
Kspace  | 3.2196     | 3.8312     | 4.4093     |  13.3 | 49.01
Neigh   | 0.02825    | 0.028455   | 0.028679   |   0.0 |  0.36
Comm    | 0.98315    | 1.0699     | 1.133      |   3.4 | 13.69
Output  | 2.8583e-05 | 4.5523e-05 | 7.3047e-05 |   0.0 |  0.00
Modify  | 0.62721    | 0.69391    | 0.74572    |   3.6 |  8.88
Other   |            | 0.1075     |            |       |  1.38

Nlocal:    24.625 ave 33 max 18 min
Histogram: 5 5 25 6 42 10 23 3 6 3
Nghost:    2828.69 ave 2860 max 2797 min
Histogram: 3 13 18 16 15 9 22 18 9 5
Neighs:    8924.14 ave 13483 max 5569 min
Histogram: 4 9 16 34 29 14 11 7 3 1

Total # of neighbors = 1142290
Ave neighs/atom = 362.402
Ave special neighs/atom = 1.90355
Neighbor list builds = 90
Dangerous builds = 0
PPPM initialization ...
  extracting TIP4P info from pair style
  using 12-bit tables for long-range coulomb (../kspace.cpp:321)
  G vector (1/distance) = 0.309655
  grid = 30 30 30
  stencil order = 5
  estimated absolute RMS force accuracy = 0.00382258
  estimated relative force accuracy = 1.15116e-05
  using double precision FFTs
  3d grid and FFT values/proc = 2475 256
Setting up Verlet run ...
  Unit style    : real
  Current step  : 40000
  Time step     : 0.5
Per MPI rank memory allocation (min/avg/max) = 8.199 | 8.21 | 8.218 Mbytes
Density 
   1.1589643 
   1.1589643 
Loop time of 7.96398 on 128 procs for 10000 steps with 3152 atoms

Performance: 54.244 ns/day, 0.442 hours/ns, 1255.654 timesteps/s
99.4% CPU use with 128 MPI tasks x no OpenMP threads

MPI task timing breakdown:
Section |  min time  |  avg time  |  max time  |%varavg| %total
---------------------------------------------------------------
Pair    | 1.5555     | 2.1037     | 2.6384     |  16.9 | 26.42
Bond    | 0.00072895 | 0.00082405 | 0.0013956  |   0.0 |  0.01
Kspace  | 3.3225     | 3.8362     | 4.3904     |  12.5 | 48.17
Neigh   | 0.074421   | 0.07482    | 0.075343   |   0.1 |  0.94
Comm    | 1.0347     | 1.1307     | 1.1937     |   3.6 | 14.20
Output  | 2.8042e-05 | 4.2814e-05 | 6.8498e-05 |   0.0 |  0.00
Modify  | 0.63483    | 0.70985    | 0.7676     |   3.9 |  8.91
Other   |            | 0.1078     |            |       |  1.35

Nlocal:    24.625 ave 33 max 16 min
Histogram: 3 5 9 12 33 31 12 13 9 1
Nghost:    2824.09 ave 2856 max 2790 min
Histogram: 7 5 8 17 20 27 14 17 6 7
Neighs:    8931.02 ave 12417 max 5124 min
Histogram: 2 4 9 19 33 20 14 17 7 3

Total # of neighbors = 1143170
Ave neighs/atom = 362.681
Ave special neighs/atom = 1.90355
Neighbor list builds = 221
Dangerous builds = 0
PPPM initialization ...
  extracting TIP4P info from pair style
  using 12-bit tables for long-range coulomb (../kspace.cpp:321)
  G vector (1/distance) = 0.309655
  grid = 30 30 30
  stencil order = 5
  estimated absolute RMS force accuracy = 0.00382258
  estimated relative force accuracy = 1.15116e-05
  using double precision FFTs
  3d grid and FFT values/proc = 2475 256
Setting up Verlet run ...
  Unit style    : real
  Current step  : 0
  Time step     : 2
Per MPI rank memory allocation (min/avg/max) = 8.199 | 8.21 | 8.218 Mbytes
Density 
   1.1589643 
   1.1589643 
   1.1589643 
   1.1589643 
   1.1589643 
   1.1589643 
   1.1589643 
   1.1589643 
   1.1589643 
   1.1589643 
   1.1589643 
Loop time of 85.817 on 128 procs for 100000 steps with 3152 atoms

Performance: 201.359 ns/day, 0.119 hours/ns, 1165.271 timesteps/s
99.4% CPU use with 128 MPI tasks x no OpenMP threads

MPI task timing breakdown:
Section |  min time  |  avg time  |  max time  |%varavg| %total
---------------------------------------------------------------
Pair    | 17.507     | 21.539     | 25.865     |  39.8 | 25.10
Bond    | 0.0072371  | 0.0082467  | 0.014788   |   1.0 |  0.01
Kspace  | 36.224     | 40.444     | 44.46      |  29.4 | 47.13
Neigh   | 2.8633     | 2.8799     | 2.9025     |   0.5 |  3.36
Comm    | 11.035     | 11.91      | 12.643     |  11.2 | 13.88
Output  | 0.00033827 | 0.00049101 | 0.00089627 |   0.0 |  0.00
Modify  | 6.9356     | 7.7701     | 8.3338     |  13.1 |  9.05
Other   |            | 1.266      |            |       |  1.47

Nlocal:    24.625 ave 33 max 17 min
Histogram: 5 10 7 27 16 29 16 8 5 5
Nghost:    2820.51 ave 2857 max 2794 min
Histogram: 3 12 18 34 20 18 11 6 4 2
Neighs:    8925.4 ave 12156 max 5548 min
Histogram: 4 6 16 19 13 28 16 11 7 8

Total # of neighbors = 1142451
Ave neighs/atom = 362.453
Ave special neighs/atom = 1.90355
Neighbor list builds = 8597
Dangerous builds = 0
WARNING: New thermo_style command, previous thermo_modify settings will be lost (../output.cpp:705)
PPPM initialization ...
  extracting TIP4P info from pair style
  using 12-bit tables for long-range coulomb (../kspace.cpp:321)
  G vector (1/distance) = 0.309655
  grid = 30 30 30
  stencil order = 5
  estimated absolute RMS force accuracy = 0.00382258
  estimated relative force accuracy = 1.15116e-05
  using double precision FFTs
  3d grid and FFT values/proc = 2475 256
Setting up Verlet run ...
  Unit style    : real
  Current step  : 0
  Time step     : 2
[...]
98200000    300.95971    297.98881    -37.45493    38.735693   -19156.462    1929.6701   -17226.792 
98210000    304.24048    298.25719   -241.81185   -13.715458   -19121.841    1950.7055   -17171.135 
98220000    297.24673    298.05779    219.47676    7.6808208   -19110.221    1905.8635   -17204.357 
98230000    295.49874    298.42418    574.10109   -95.363086   -19087.917    1894.6559   -17193.261 
98240000    301.15754    298.38637     466.1181     84.43626   -19055.877    1930.9386   -17124.938 
98250000    297.26136    298.13169    119.41411   -79.051326   -19093.227    1905.9573   -17187.269 
98260000    301.54534    298.23133   -112.85385   -27.210144   -19022.896     1933.425   -17089.471 
98270000    300.96027    298.10215    68.882791    4.2441445   -19052.986    1929.6737   -17123.312 
98280000    295.86453    298.22499    204.57257    43.813599   -19005.905    1897.0013   -17108.904 
98290000     298.8995    298.11912    537.59063    94.739112   -19044.603    1916.4606   -17128.143 
98300000    305.51359    298.06653     11.32771   -64.943699   -18939.217    1958.8684   -16980.348 
98310000    293.90107    297.85931   -406.13194   -12.111306   -19070.027    1884.4121   -17185.615 
98320000    300.93776    298.12101    -281.2702    51.396021   -19094.314    1929.5294   -17164.785 
98330000    299.37515    298.25614    546.87514    114.10133   -19058.134    1919.5103   -17138.623 
98340000    296.88133    297.90254     181.2071   -73.199791   -19060.785    1903.5207   -17157.264 
98350000    305.64984    298.08147   -272.81268    25.926199   -19126.205     1959.742   -17166.463 
98360000    297.73513    297.78034    93.585021   -41.500228   -19102.174     1908.995   -17193.179 
98370000    298.57522    298.56756   -689.38331   -66.607447   -19153.289    1914.3814   -17238.907 
98380000    288.34535    297.69402    61.824057    11.667403    -19129.12    1848.7904   -17280.329 
98390000    290.84873    298.47753   -7.9548696    42.505079   -19167.997    1864.8413   -17303.156 
98400000    292.68721    298.24611    7.1108601    12.638748   -19077.112    1876.6292   -17200.483 
98410000     297.1497    298.03914   -19.062288    93.598698   -19127.856    1905.2414   -17222.615 
98420000    298.44092    297.88901   -426.34479    34.643826    -19102.02    1913.5203     -17188.5 
98430000     300.2775    297.72664     338.5219   -79.256836    -19183.48    1925.2959   -17258.184 
98440000    304.17936    297.35747    270.02199   -36.559325   -19106.311    1950.3136   -17155.997 
98450000    303.03112    297.53145   -700.99102   -86.614203    -19168.69    1942.9514   -17225.739 
98460000    303.40916    298.36809    166.88182   -70.041286   -19004.959    1945.3753   -17059.584 
98470000    294.34185    297.70187   -58.708014   -90.637482   -19079.211    1887.2382   -17191.973 
98480000    292.24679    298.53898    222.00056    31.621028   -19143.748    1873.8053   -17269.942 
98490000    317.22849    298.14386    361.91029   -31.418921   -19139.088     2033.981   -17105.107 
98500000    301.31759    297.65401    292.23007   -19.794579   -19001.687    1931.9648   -17069.723 
98510000    292.86851    297.85153    645.08863    8.7640032   -19173.514    1877.7916   -17295.722 
98520000    308.98394    298.10622    15.171434    35.989587   -19051.697    1981.1193   -17070.578 
98530000     292.4411    298.09298    2.8351806   -75.717405   -18999.184    1875.0512   -17124.133 
98540000    306.54709     298.0082    171.36575   -37.730894   -19027.468    1965.4948   -17061.973 
98550000    300.33593    297.79015   -200.34033     4.178724   -19129.655    1925.6706   -17203.984 
98560000    293.85919    298.30732     330.4691   -14.919463   -19096.152    1884.1436   -17212.008 
98570000    289.06363    298.16949   -678.52451   -58.360464   -19018.791    1853.3958   -17165.395 
98580000    295.48442    298.48237   -85.801335    53.758134   -19040.244    1894.5641    -17145.68 
98590000    301.33727    297.95032   -189.22442   -48.021884   -19137.021    1932.0909    -17204.93 
98600000    301.98237    297.97156    1.1304861   -99.417939   -19185.375    1936.2271   -17249.148 
98610000    297.69514    297.94084    278.83828    99.648353    -19088.96    1908.7386   -17180.222 
98620000    299.00215    297.83148    -189.6061   -92.446546   -19105.071    1917.1188   -17187.953 
98630000    302.93158    297.95115   -424.47055     87.13557   -19087.294    1942.3132   -17144.981 
98640000    295.98658    298.01015    478.92914   -2.5092109   -19048.978    1897.7838   -17151.195 
98650000    302.02835    297.85748    199.67666   -44.699423   -19026.658    1936.5219   -17090.136 
98660000    291.75755    298.19544    114.91746   -121.25393   -19163.356    1870.6685   -17292.688 
98670000    306.44274    298.33134    221.36023    35.592366   -19094.872    1964.8258   -17130.047 
98680000      304.303    298.17101    156.72287    152.15656   -19156.031    1951.1064   -17204.925 
98690000    299.20317    297.99885    37.755651    41.644542     -19045.3    1918.4077   -17126.892 
98700000    293.09388    297.92311   -174.12919   -91.971056   -19153.691    1879.2366   -17274.454 
98710000    297.95239    297.78007   -536.29006   -26.862771   -19054.111     1910.388   -17143.723 
98720000    298.00221    298.31578   -511.70028   -24.646298   -19065.668    1910.7074    -17154.96 
98730000    296.47157    298.05622   -415.75676   -48.661636   -19056.855    1900.8934   -17155.962 
98740000    294.24878    297.85817   -17.922101   -53.474186   -19089.737    1886.6415   -17203.095 
98750000    290.65193    298.23256   -535.35605    5.5819426   -19128.273    1863.5795   -17264.693 
98760000    296.06455    298.34502    497.83679    2.7896483   -19088.206    1898.2837   -17189.922 
98770000     298.0212    298.10283   -557.33638   -24.257237   -19150.634    1910.8292   -17239.805 
98780000    291.98118    297.78984   -239.03023   -58.149501   -19133.471    1872.1023   -17261.369 
98790000    298.10708    297.91898    163.70525    51.376845   -19010.345    1911.3798   -17098.966 
98800000    298.12939      298.335    84.268022   -5.2718199    -19025.53    1911.5229   -17114.007 
98810000    285.47678    297.97155     -462.995      31.1768   -19047.625    1830.3979   -17217.227 
98820000    298.84839    297.84376   -365.24231   -50.786769   -19064.177    1916.1329   -17148.044 
98830000    298.20854    298.64341   -280.57392   -63.665564   -19109.803    1912.0304   -17197.772 
98840000    292.20085    298.40972   -59.937157   -78.658855   -19089.621    1873.5108    -17216.11 
98850000     290.8325    297.71079   -656.40093   -44.483496   -19022.352    1864.7373   -17157.614 
98860000     294.2842    297.81658    365.95854    109.11467   -19108.709    1886.8686   -17221.841 
98870000    301.43492    297.70171    100.72072   -99.905575   -19094.228     1932.717   -17161.511 
98880000    292.07199    298.41246   -167.71796   -27.308657   -19173.057    1872.6845   -17300.373 
98890000    300.48633    298.07119    203.34158   -1.6177335   -19132.194    1926.6349   -17205.559 
98900000    300.81599    298.33043   -69.991466   -8.4383679   -19113.598    1928.7486    -17184.85 
98910000    295.82626    297.69985   -344.40098   -51.193009   -19137.687    1896.7559   -17240.932 
98920000    296.57977    297.98785     133.7911   -66.304627   -19136.273    1901.5872   -17234.686 
98930000    287.24202    298.19078     93.69686    35.986931    -19080.53    1841.7161   -17238.814 
98940000    299.83897    297.68343    136.77138    45.153659   -19058.392    1922.4843   -17135.908 
98950000     297.6654    298.19173    171.25415    2.6425933   -19189.525    1908.5479   -17280.977 
98960000    299.45429    297.94873    3.4914345    11.516776   -19101.601    1920.0178   -17181.583 
98970000    290.65242    298.19613   -488.16829   -101.30462    -19098.44    1863.5826   -17234.858 
98980000    300.77715     297.8262   -643.89472   -8.7294254   -19110.067    1928.4996   -17181.568 
98990000    300.55475    298.04932    207.65302   -95.819234   -19079.856    1927.0737   -17152.782 
99000000     295.7268    298.03432   -173.15257    5.6667374   -19173.601    1896.1182   -17277.483 
99010000    301.52968     298.2296   -116.53055   -10.316183   -19134.571    1933.3246   -17201.247 
99020000    301.01593    298.03711   -473.14206   -5.7236783   -19113.939    1930.0306   -17183.908 
99030000    298.94554    297.83033   -224.51509    42.418907   -19071.762    1916.7558   -17155.006 
99040000     295.1691    297.67321     491.3015    65.880527   -19021.034    1892.5423   -17128.491 
99050000    290.05657    297.91483   -57.562185    67.824643   -19128.689    1859.7622   -17268.927 
99060000     300.2467    298.20069    18.991189    83.661296   -19113.556    1925.0985   -17188.457 
99070000    297.61982    298.03048   -212.92533   -122.54577   -19166.176    1908.2557    -17257.92 
99080000    295.93455    297.39549      197.679   -35.305154   -19054.782    1897.4502   -17157.331 
99090000    288.35801    298.20086   -28.772275    8.0547593   -18992.372    1848.8715   -17143.501 
99100000    306.18585    297.81412    61.512403   -43.922442   -19048.833    1963.1787   -17085.654 
99110000     305.8632    298.36159    349.51075   -37.836367   -19040.249    1961.1099   -17079.139 
99120000    296.68801    298.19344   -605.20949   -40.070619   -19041.307    1902.2812   -17139.026 
99130000    302.96254    298.28275   -21.452019    38.450961   -19054.037    1942.5117   -17111.525 
99140000     303.0441    298.44883   -124.97857     -50.5625   -19117.515    1943.0346    -17174.48 
99150000    295.62703    297.73931    166.74513   -10.175214   -19088.021    1895.4785   -17192.542 
99160000    292.77493    297.54391    169.74844   -26.783081   -19101.425    1877.1916   -17224.234 
99170000    297.84544    297.86581    105.81979     100.7585   -19120.067    1909.7023   -17210.364 
99180000    296.22078    298.21011   -8.7286137     35.15095   -19013.368    1899.2854   -17114.083 
99190000    288.82831    297.87244   -575.77523    6.8223341   -19072.787    1851.8869     -17220.9 
99200000    300.39208     297.6178   -81.739485    120.49814   -19095.318    1926.0307   -17169.287 
99210000    295.24183    297.85618    290.86035     61.36414   -19054.592    1893.0086   -17161.583 
99220000    298.55066    298.40608    389.59898    69.693833   -18948.475    1914.2239   -17034.251 
99230000    305.13911    297.96962    619.59736   -7.6975667   -19065.096    1956.4673   -17108.629 
99240000    301.33145    297.80663   -353.95339   -57.030439    -19088.72    1932.0536   -17156.666 
99250000    301.65872    298.19466    656.64092    10.626926   -19086.756     1934.152   -17152.604 
99260000    301.04223    298.32344    226.06661    71.516063   -19130.975    1930.1992   -17200.776 
99270000    298.35069    298.47482   -233.76995    47.114451   -19084.595    1912.9418   -17171.653 
99280000    313.11496    298.53063    329.27589    15.984818   -19053.945    2007.6062   -17046.339 
99290000    305.60034    297.96324     262.7601    10.440581    -19120.69    1959.4245   -17161.265 
99300000    295.46476     298.5198   -113.58374    1.2475686   -19127.116     1894.438   -17232.678 
99310000    306.05425    297.56459   -296.69765    24.525044   -19073.868    1962.3349   -17111.534 
99320000    293.50066    297.59602    61.007865   -45.611152   -19081.614    1881.8448   -17199.769 
99330000    290.60649    298.62767   -146.93574   -69.622607   -19099.628    1863.2882    -17236.34 
99340000    298.94399    297.74374     -184.711    11.778557   -19063.007    1916.7459   -17146.261 
99350000    300.54469    297.93706    106.26472    30.210976   -19116.081    1927.0091   -17189.072 
99360000    299.74788     298.3203   -95.127628   -108.60363   -19064.272    1921.9002   -17142.372 
99370000    292.44612    298.18142    -633.0102   -3.7329956   -19131.003    1875.0833    -17255.92 
99380000    299.27585    298.35511    34.638496    45.505549   -19021.285    1918.8737   -17102.411 
99390000    293.28665    298.16378     767.5829   -20.223931   -19029.556    1880.4726   -17149.083 
99400000    299.57852    298.69812   -683.92275   -65.358046   -19194.471    1920.8143   -17273.657 
99410000    293.69433    297.72732   -861.80815     85.45373   -19065.437    1883.0865    -17182.35 
99420000    303.41617    297.97818   -69.730913    64.657055   -19111.567    1945.4202   -17166.147 
99430000     294.1733    298.06061    952.33536    18.413877   -19044.127    1886.1575   -17157.969 
99440000    306.10828    298.15206   -343.88381    3.7389508   -19086.996    1962.6813   -17124.315 
99450000    300.06527    297.73768   -24.233346   -52.085657   -19092.921    1923.9352   -17168.986 
99460000    298.04659    297.79343    67.091134   -32.293357   -19119.292     1910.992     -17208.3 
99470000    302.67249    297.79563    187.66608     43.71396   -19090.786     1940.652   -17150.134 
99480000    287.61876    297.77674   -332.28134    14.809338   -19080.527    1844.1316   -17236.395 
99490000    304.24478     297.7533   -82.031876     5.177087   -19107.689    1950.7331   -17156.956 
99500000    302.23133    297.93209     329.1304    40.767945   -19123.004    1937.8234   -17185.181 
99510000    292.82689    297.92807   -90.276871   -44.484579   -19133.235    1877.5248   -17255.711 
99520000    294.49734    297.61352    617.43552   -87.712199   -19099.619    1888.2352   -17211.383 
99530000    301.57727     297.8923   -194.26907    70.051702   -19140.756    1933.6297   -17207.126 
99540000     299.2631    297.61083     709.8441    50.087246   -19112.024    1918.7919   -17193.232 
99550000    298.93367     298.2253    107.23673   -58.507701   -19070.882    1916.6797   -17154.202 
99560000     302.6051    297.70774   -612.78492   -126.98295   -19100.839    1940.2199   -17160.619 
99570000    295.52647    297.74208    567.22648   -3.1984292   -19151.024    1894.8337    -17256.19 
99580000     294.4877    297.94148   -632.78896    70.125082   -19175.042    1888.1734   -17286.868 
99590000    299.58598    297.99118    320.34789    28.308066   -19070.379    1920.8621   -17149.517 
99600000     293.9498    298.04183   -131.87294    -17.17348   -19087.306    1884.7245   -17202.582 
99610000    307.02208    297.82525    464.98547    34.748344   -19029.087    1968.5403   -17060.547 
99620000    297.42691    298.44047   -602.51322    21.480997   -19042.373    1907.0188   -17135.354 
99630000    284.08014    297.60746   -214.56435    29.492832    -19211.59     1821.443   -17390.147 
99640000     295.5807    298.34517    -572.9816   -56.018097   -19187.809    1895.1814   -17292.627 
99650000    294.01102    297.72128     170.1742   -37.741862   -19081.945    1885.1171   -17196.828 
99660000    294.22826    298.00125   -62.610663   -55.255437   -19111.839    1886.5099   -17225.329 
99670000    302.53776    297.84293   -332.64108   -37.678903   -19093.002    1939.7882   -17153.214 
99680000    297.63555    298.16401    -133.3109   -72.156532   -19066.694    1908.3565   -17158.338 
99690000    294.54051    298.34602    272.69953    -74.94016   -19116.251     1888.512   -17227.739 
99700000    311.13076     297.8404    121.60114   -84.170531   -19048.613    1994.8841   -17053.729 
99710000    300.25306    298.16785    560.06129   -40.353805   -19029.298    1925.1392   -17104.159 
99720000    298.82782    298.40139   -338.68889    80.137589   -19032.734     1916.001   -17116.733 
99730000    295.35345    297.66483   -54.881941   -41.371026   -19067.037    1893.7243   -17173.313 
99740000    299.71837    297.96224   -118.86141    76.326557   -19141.572     1921.711   -17219.861 
99750000    305.14763    298.02717   -288.45354   -37.112112   -19090.079    1956.5219   -17133.557 
99760000    288.84313    297.90605   -220.31191    57.358927   -19044.503     1851.982   -17192.521 
99770000    295.03873    297.49373   -271.52668    110.40115   -19117.077    1891.7064    -17225.37 
99780000    308.11729    298.40055    375.62947   -22.250073   -19050.736    1975.5625   -17075.174 
99790000     286.6204    298.34172   -132.49076   -30.271998   -19082.296    1837.7304   -17244.566 
99800000    300.14679    297.90285    582.79924    4.0037896   -19088.206    1924.4579   -17163.748 
99810000    302.14578    297.94848   -488.77822   -26.267307   -19060.119    1937.2749   -17122.844 
99820000    300.35893    298.26997   -105.20265   -9.5571296   -19131.956    1925.8181   -17206.138 
99830000    296.94937    297.99497    287.77835   -104.02528   -19091.134    1903.9569   -17187.177 
99840000    293.03213    298.42358    381.49665   -33.485663   -19034.603    1878.8407   -17155.762 
99850000    306.46703     297.7267    59.981291   -76.236458   -19118.076    1964.9815   -17153.094 
99860000     297.2663    297.95097    147.82666   -62.303742   -19062.381     1905.989   -17156.392 
99870000    303.66737    297.84867   -288.11661    62.906325   -19171.361    1947.0309   -17224.331 
99880000     307.5244    297.65752   -455.75046   -31.925691   -19014.005    1971.7611   -17042.244 
99890000    292.55141    298.11775   -644.90328    22.880539   -19091.442    1875.7584   -17215.683 
99900000    294.25897    298.27875   -217.61232    31.394253   -18998.059    1886.7069   -17111.352 
99910000    298.36683     298.2578   -165.55132   -46.823265   -19053.306    1913.0453   -17140.261 
99920000    292.46715    297.69106    226.25356   -62.066809   -19114.131    1875.2182   -17238.913 
99930000    304.03951    297.93316   -3.2676861    87.660309   -19108.075    1949.4169   -17158.658 
99940000    295.49095     297.9346    156.30258    8.6224058   -19075.343    1894.6059   -17180.737 
99950000    301.59065     297.9743   -294.30699    44.926383   -19090.501    1933.7155   -17156.785 
99960000    304.04697    298.14038   -178.03237   -57.880178   -19054.162    1949.4648   -17104.697 
99970000    297.52911    297.65018   -363.27738    13.616956   -19151.785    1907.6741   -17244.111 
99980000    297.10848    297.46667   -20.811638    -58.34762   -19143.753    1904.9771   -17238.776 
99990000     298.0144    298.28186    262.83569   -29.287106   -19065.561    1910.7856   -17154.776 
100000000    291.92739    298.04563     786.7549   -5.7129117    -19121.68    1871.7574   -17249.923 
Loop time of 92389.2 on 128 procs for 100000000 steps with 3152 atoms

Performance: 187.035 ns/day, 0.128 hours/ns, 1082.377 timesteps/s
99.3% CPU use with 128 MPI tasks x no OpenMP threads

MPI task timing breakdown:
Section |  min time  |  avg time  |  max time  |%varavg| %total
---------------------------------------------------------------
Pair    | 19528      | 23283      | 26584      |1163.7 | 25.20
Bond    | 8.7013     | 9.6112     | 15.595     |  27.3 |  0.01
Kspace  | 39262      | 42776      | 46444      | 864.0 | 46.30
Neigh   | 2945.6     | 2962.3     | 2987.9     |  14.8 |  3.21
Comm    | 11365      | 12212      | 12885      | 317.3 | 13.22
Output  | 6.1051     | 88.177     | 103.75     | 168.3 |  0.10
Modify  | 8943.2     | 9524.4     | 10184      | 322.0 | 10.31
Other   |            | 1534       |            |       |  1.66

Nlocal:    24.625 ave 33 max 16 min
Histogram: 3 5 13 8 35 30 12 12 7 3
Nghost:    2822.65 ave 2857 max 2787 min
Histogram: 4 7 11 8 30 22 24 12 7 3
Neighs:    8924.89 ave 12889 max 5044 min
Histogram: 2 3 7 30 24 27 19 9 6 1

Total # of neighbors = 1142386
Ave neighs/atom = 362.432
Ave special neighs/atom = 1.90355
Neighbor list builds = 8624775
Dangerous builds = 0

JOB STATISTICS
==============
Job ID: 2423601
Cluster: snellius
User/Group: phabibi/phabibi
State: RUNNING
Nodes: 1
Cores per node: 128
CPU Utilized: 151-14:18:40
CPU Efficiency: 99.32% of 152-15:23:44 core-walltime
Job Wall-clock time: 1-04:37:13
Memory Utilized: 21.09 GB (estimated maximum)
Memory Efficiency: 9.41% of 224.00 GB (1.75 GB/core)
WARNING: Efficiency statistics may be misleading for RUNNING jobs.
