1572
Atoms. Timestep: 0
Ow 2.18697 1.96764 16.305
H 2.00463 1.81778 15.3774
H 1.33827 1.86616 16.7359
Ow 13.7722 11.8405 15.6658
H 13.0778 11.3874 15.1875
H 13.9813 11.2571 16.3952
Ow 8.32005 9.5141 13.9402
H 9.03481 9.06066 14.3872
H 7.58048 8.9089 13.995
Ow 6.5258 14.4071 13.7095
H 6.38562 15.2641 14.1122
H 6.0877 14.4663 12.8605
Ow 16.5763 14.2733 16.9803
H 17.399 14.7132 17.1944
H 15.9153 14.7367 17.4947
Ow 18.2049 0.231476 15.0134
H 18.0543 1.08401 14.6051
H 17.3374 25.4622 15.0558
Ow 5.25513 24.5733 7.82014
H 5.9502 25.0235 7.34016
H 5.03896 25.165 8.54079
Ow 1.76202 14.6521 7.2934
H 2.11623 13.7834 7.10344
H 0.888377 14.6458 6.90232
Ow 14.1413 9.93966 17.445
H 15.052 10.0644 17.7119
H 13.655 9.88767 18.2678
Ow 22.2652 19.3826 23.24
H 22.9587 19.7795 22.7131
H 22.7282 18.8269 23.8669
Ow 8.09158 22.9711 3.07081
H 8.35189 22.1095 3.39648
H 7.59195 23.3584 3.78956
Ow 6.77018 11.7557 8.92854
H 7.39912 11.767 8.20706
H 6.01927 11.2718 8.58478
Ow 4.99654 12.458 0.897132
H 4.36473 12.6669 0.20906
H 5.15692 13.2929 1.3371
Ow 9.77449 15.2594 19.7807
H 9.10738 14.6153 19.5433
H 9.38799 16.1029 19.5458
Ow 0.48174 10.0943 8.63517
H 1.34764 10.484 8.75589
H 0.640773 9.31762 8.09873
Ow 3.96985 0.590848 6.06132
H 4.2232 25.5651 6.70786
H 4.75966 1.11578 5.93142
Ow 5.55817 7.14691 11.6873
H 4.61997 7.31421 11.7768
H 5.61541 6.43749 11.0472
Ow 17.5147 10.6787 25.4151
H 16.6378 10.7366 25.0357
H 17.4274 10.0425 0.492
Ow 25.0168 15.0237 6.12757
H 24.4972 14.2351 5.97156
H 24.5084 15.5237 6.76615
Ow 21.6522 7.67037 4.74938
H 20.7928 7.48572 4.37035
H 21.9037 6.85468 5.1825
Ow 9.73376 9.32702 23.5684
H 10.2933 8.66459 23.163
H 10.0941 9.44 24.4479
Ow 3.95009 23.6832 22.921
H 4.57928 24.3306 23.2391
H 3.09712 24.0268 23.1868
Ow 24.2475 21.6774 16.844
H 25.1358 21.6033 17.1927
H 23.9137 20.7803 16.8451
Ow 13.0609 19.6115 3.40381
H 12.5928 19.7215 2.57614
H 13.9829 19.7295 3.17562
Ow 15.2761 2.88317 5.47283
H 15.2247 2.71433 4.53205
H 15.8305 3.65993 5.54727
Ow 12.1093 20.1088 0.877367
H 11.1641 20.0273 0.750456
H 12.4788 19.3529 0.421021
Ow 2.31346 4.98865 23.3908
H 1.69649 5.0532 22.6619
H 3.01797 4.43126 23.0603
Ow 16.9416 3.77776 20.9173
H 17.0432 3.10236 21.5879
H 16.5839 4.53093 21.3875
Ow 0.673653 4.26654 13.7139
H 1.03355 3.38319 13.7939
H 25.3701 4.16015 13.8807
Ow 1.78652 22.4458 14.6617
H 1.4456 22.9382 13.915
H 1.34881 22.8289 15.4218
Ow 6.31195 1.53479 22.6659
H 6.5932 0.622751 22.593
H 5.41015 1.48326 22.9826
Ow 18.7037 1.62753 8.39689
H 18.3632 1.53025 9.28617
H 18.0639 1.17849 7.84446
Ow 10.7187 20.3636 14.9233
H 11.2524 20.532 14.1468
H 11.3426 20.3695 15.6492
Ow 12.4077 12.5127 24.8726
H 11.5408 12.1979 25.1289
H 12.8377 12.7315 25.6993
Ow 25.1275 2.11155 17.4828
H 24.7891 2.99519 17.6272
H 24.3644 1.54272 17.5841
Ow 14.1979 5.29124 10.799
H 15.0624 5.16854 10.4069
H 13.5856 5.16587 10.074
Ow 18.0939 5.43767 0.538864
H 18.539 4.70746 25.7419
H 18.0396 6.11573 25.4984
Ow 12.6321 13.4632 11.0644
H 12.5921 12.8645 10.3187
H 12.2015 14.2603 10.7556
Ow 1.87311 18.4805 2.55575
H 1.2516 18.1134 1.9271
H 1.50101 19.3299 2.79302
Ow 3.20447 6.54989 7.55935
H 2.31892 6.88883 7.42838
H 3.76278 7.32735 7.55025
Ow 15.5303 24.7618 15.7758
H 14.8247 24.8414 16.4177
H 15.3344 23.953 15.3029
Ow 1.39272 0.140175 4.19218
H 1.41048 0.802163 4.88333
H 1.69575 24.972 4.6194
Ow 5.70917 5.1306 9.89392
H 6.5592 4.80294 10.1877
H 5.89316 5.55974 9.05833
Ow 9.15625 21.3443 17.1946
H 9.2187 21.4777 16.2488
H 8.71167 20.5019 17.2894
Ow 7.65406 22.9839 25.0606
H 7.48288 23.1819 24.1399
H 8.11242 22.1438 25.0442
Ow 20.6109 12.9659 13.8581
H 20.8793 13.6782 13.2778
H 20.2362 13.4061 14.621
Ow 15.4296 19.9596 1.9281
H 15.2071 20.7911 1.50935
H 14.9652 19.2998 1.41311
Ow 0.497158 13.5427 12.8745
H 1.11671 12.8132 12.859
H 0.415946 13.8081 11.9584
Ow 2.11339 11.0619 15.287
H 2.2601 10.122 15.3932
H 2.54966 11.2814 14.4638
Ow 21.8252 3.88997 2.96002
H 22.7259 3.95857 2.64344
H 21.8256 4.36655 3.79014
Ow 21.6262 16.0004 9.46844
H 22.541 16.099 9.20432
H 21.1458 16.6005 8.89811
Ow 11.4601 8.9922 4.25441
H 10.6949 8.83011 4.80627
H 12.2046 8.71821 4.78996
Ow 12.4646 0.50178 21.979
H 13.4187 0.43221 22.0119
H 12.2951 1.44012 21.8951
Ow 2.33837 11.3949 12.2584
H 2.68939 10.6178 11.8236
H 2.51208 12.1109 11.6474
Ow 14.3765 21.0444 20.4657
H 13.8078 20.2775 20.5342
H 13.8468 21.7669 20.8026
Ow 2.11863 8.93724 18.0714
H 2.51035 8.47055 18.8096
H 1.36321 9.38948 18.4469
Ow 13.0487 9.08916 8.13656
H 13.0168 9.95494 8.54355
H 12.5668 8.52277 8.73929
Ow 18.7347 25.0817 22.9662
H 17.9016 24.9541 23.42
H 18.9109 24.2396 22.5466
Ow 4.15917 18.9597 0.78317
H 4.12057 19.5897 25.6966
H 3.2916 19.0013 1.18543
Ow 15.8026 24.3118 5.1696
H 15.8952 24.441 4.2257
H 16.6784 24.0626 5.46476
Ow 0.830279 2.02308 6.11347
H 0.243725 1.47861 6.63857
H 1.40708 2.44056 6.75319
Ow 20.056 8.55343 8.93511
H 19.2736 8.41563 8.40115
H 20.2156 7.7058 9.35018
Ow 11.5775 7.62766 10.108
H 10.9533 6.9986 10.4699
H 11.5751 8.35389 10.7316
Ow 9.18644 6.63799 11.6702
H 8.7766 5.80648 11.4318
H 8.76145 7.28513 11.1073
Ow 4.07416 21.1214 23.5987
H 4.95174 20.7402 23.5701
H 4.21767 22.0622 23.4967
Ow 3.45686 9.26106 10.8528
H 3.89971 9.44209 10.0237
H 3.14439 8.36045 10.7663
Ow 25.6891 11.6542 6.19556
H 0.812633 12.2366 6.12824
H 0.430208 10.7977 6.40213
Ow 1.19035 8.85816 0.770166
H 2.04554 9.12242 1.10937
H 0.577336 9.48972 1.14644
Ow 24.4138 16.0888 8.48016
H 25.031 15.5349 8.95821
H 24.9333 16.8435 8.20326
Ow 23.6644 21.6469 14.3247
H 23.9344 21.7753 15.234
H 23.5676 22.533 13.9758
Ow 24.8422 18.6241 4.63903
H 25.0417 18.5695 5.57363
H 25.2015 17.8175 4.26946
Ow 3.40038 20.7285 4.67767
H 3.04467 19.9734 5.14626
H 3.69774 21.3211 5.36806
Ow 18.0288 9.74562 7.20799
H 17.476 10.4029 7.63074
H 17.4111 9.14367 6.79286
Ow 14.9912 25.6755 22.0361
H 15.3931 25.2781 22.8087
H 15.4627 25.2923 21.2964
Ow 14.6114 1.33814 0.463005
H 13.851 0.756901 0.470696
H 14.5696 1.79924 1.30078
Ow 11.534 5.3453 12.5522
H 10.7927 5.91988 12.3608
H 12.1934 5.57854 11.8987
Ow 1.26091 23.1369 5.33472
H 0.505687 22.6178 5.61122
H 1.9576 22.4943 5.20061
Ow 15.8125 11.7412 23.4628
H 15.7041 12.6559 23.7233
H 15.6369 11.7373 22.5218
Ow 14.1711 17.9386 20.3706
H 13.7864 17.2647 20.931
H 15.0952 17.6977 20.3053
Ow 4.47548 19.879 12.884
H 4.4289 19.0531 13.3655
H 4.58674 20.5459 13.5616
Ow 16.5032 21.1405 10.9748
H 15.6826 20.6515 11.0363
H 16.7634 21.0582 10.0573
Ow 19.3333 6.44586 17.4126
H 19.842 6.80948 18.1373
H 19.7405 5.59796 17.2352
Ow 17.6985 12.9584 14.9768
H 17.0716 13.3024 15.6132
H 17.3544 12.0964 14.7427
Ow 22.3046 4.79755 8.95651
H 21.7989 5.33433 9.56678
H 22.8151 5.42806 8.44854
Ow 11.4643 11.0468 14.3325
H 11.0554 10.3559 14.8537
H 11.69 10.6216 13.5051
Ow 15.2779 22.2488 18.1615
H 15.0781 21.5792 18.8156
H 15.4819 23.0313 18.6737
Ow 23.3876 19.749 20.5504
H 22.9913 20.277 19.8573
H 24.0749 20.3071 20.914
Ow 0.382572 16.2125 4.01159
H 1.33719 16.2606 4.06285
H 25.7456 15.8815 4.8682
Ow 17.4895 17.3046 3.28292
H 17.2127 17.1267 2.38401
H 17.27 16.5066 3.76387
Ow 6.76212 15.3813 5.98471
H 6.61082 16.3037 6.19094
H 6.27791 14.9025 6.65737
Ow 2.45965 21.4101 0.159252
H 3.00122 21.443 25.0037
H 2.40008 22.3209 0.447614
Ow 14.4298 6.95709 14.2959
H 14.4671 7.0978 13.3498
H 15.3149 6.67993 14.5324
Ow 6.03598 11.3094 4.11384
H 6.61142 11.8119 4.69058
H 5.16825 11.6899 4.24978
Ow 0.616883 8.6702 21.8335
H 0.360296 8.93944 22.7155
H 25.6974 7.91191 21.6438
Ow 18.2195 6.32381 7.97362
H 17.4508 6.14815 7.43107
H 18.7605 5.53917 7.88453
Ow 23.108 22.8674 10.7763
H 22.3884 23.4985 10.7657
H 23.8911 23.3937 10.6149
Ow 15.2145 1.03359 9.8708
H 15.3443 1.76759 10.4713
H 15.947 1.09293 9.25749
Ow 3.25654 25.4516 12.2838
H 3.51917 0.276138 11.4852
H 4.06461 25.3699 12.7904
Ow 14.44 11.4348 21.0962
H 14.9661 11.5842 20.3106
H 13.9657 10.623 20.9165
Ow 8.08108 18.6313 13.4651
H 8.63593 18.8985 14.1979
H 7.19261 18.8538 13.7432
Ow 18.1316 22.0702 2.88756
H 18.5375 22.9129 3.09094
H 18.8121 21.5816 2.42446
Ow 14.5616 8.03904 11.4457
H 14.1975 7.27915 10.9915
H 13.8234 8.64184 11.5347
Ow 5.87719 8.32825 5.88126
H 5.19558 8.18141 5.22547
H 5.57106 9.08563 6.38014
Ow 24.7335 22.3718 0.173741
H 25.3935 21.6809 25.7496
H 24.9022 22.7959 1.01513
Ow 11.4974 17.8917 14.0396
H 11.3116 18.7858 14.3266
H 12.2034 17.9868 13.4003
Ow 20.4323 16.4615 0.39824
H 20.3131 15.8844 25.277
H 21.1956 16.9941 0.17461
Ow 8.11336 4.29013 10.7215
H 8.0296 3.88973 11.5869
H 8.42276 3.581 10.1579
Ow 7.76738 13.4992 18.9963
H 7.47232 12.7243 19.4746
H 8.53767 13.203 18.5114
Ow 9.78272 20.9183 9.60538
H 10.4881 21.0258 10.2434
H 9.04473 20.587 10.1171
Ow 13.9807 19.8747 10.7396
H 13.9123 19.1189 11.3229
H 13.2943 20.4713 11.0384
Ow 5.59569 24.0224 4.19336
H 5.2529 24.682 3.59036
H 5.47667 23.1916 3.73313
Ow 2.89819 6.43074 2.22966
H 2.78076 5.61391 2.71467
H 2.04751 6.86626 2.28354
Ow 8.25856 18.1271 21.9242
H 9.03413 18.3849 22.4225
H 8.47937 18.329 21.015
Ow 19.1306 6.81811 3.53169
H 18.3994 6.79721 4.14906
H 18.8175 7.35979 2.80723
Ow 22.6805 23.5259 4.03958
H 21.874 24.0119 4.21181
H 22.3919 22.6242 3.8989
Ow 8.92693 6.16281 1.05125
H 8.20322 5.5763 0.831079
H 9.07187 6.02429 1.98721
Ow 5.27781 21.7826 2.79864
H 5.72592 20.9551 2.97392
H 4.39275 21.5261 2.53964
Ow 25.7435 19.9157 25.0308
H 25.6213 19.1105 25.5338
H 1.01055 20.1819 25.2188
Ow 1.70831 17.1385 11.5929
H 0.909671 17.6497 11.7236
H 1.66822 16.8606 10.6778
Ow 8.71898 4.97835 15.1175
H 9.3542 5.36489 15.7203
H 8.13413 5.70094 14.8894
Ow 3.63276 8.46378 4.156
H 3.88381 9.1226 3.50857
H 3.3919 7.69659 3.63673
Ow 12.0537 10.9861 2.45846
H 11.7959 10.4648 3.2188
H 13.0104 10.9981 2.48893
Ow 16.3278 25.2265 24.3312
H 16.9518 25.4944 25.0059
H 15.5241 25.6998 24.5463
Ow 15.5231 16.8445 6.02168
H 15.733 16.015 5.59257
H 15.2872 16.5989 6.91626
Ow 12.2112 5.5302 4.00076
H 12.9327 5.4347 4.62253
H 12.0674 4.64641 3.66241
Ow 10.0179 24.5613 25.4456
H 10.7218 24.2203 24.8938
H 9.30446 23.9319 25.3407
Ow 21.1166 18.467 7.78157
H 21.4168 19.2276 8.27913
H 20.9333 18.8096 6.90679
Ow 25.7423 0.716316 1.78512
H 24.8342 0.438605 1.90545
H 0.566797 0.381519 2.55635
Ow 25.1848 23.3073 2.85478
H 24.2584 23.4131 3.07088
H 25.5927 23.0311 3.67549
Ow 6.21025 9.03536 24.622
H 6.58657 8.49247 23.9292
H 6.92047 9.14374 25.2545
Ow 4.37072 17.4568 20.4352
H 3.88085 17.5314 21.2542
H 4.59206 16.5277 20.3717
Ow 20.2735 18.8339 17.3786
H 20.9967 18.987 17.9867
H 19.5154 18.6781 17.9418
Ow 22.9568 15.7543 16.5659
H 22.9001 14.8261 16.7927
H 23.5215 16.132 17.2402
Ow 6.62794 19.798 23.3061
H 7.02326 19.0706 22.8257
H 7.2241 19.954 24.0386
Ow 0.491933 23.8224 16.6063
H 25.2962 23.3734 16.4398
H 0.510404 24.5363 15.9689
Ow 23.5702 4.15015 20.638
H 23.6011 3.93257 19.7064
H 23.2564 5.05412 20.6631
Ow 2.63089 22.0283 9.27271
H 2.44552 21.0912 9.33438
H 1.77543 22.4485 9.36129
Ow 16.2955 10.8386 11.3002
H 15.9124 11.7155 11.3214
H 16.9332 10.8725 10.5871
Ow 10.5391 18.3677 5.72187
H 10.2414 19.1164 5.20517
H 11.1298 17.8925 5.13748
Ow 6.0526 2.25242 5.49611
H 6.75494 2.8938 5.38856
H 6.50095 1.407 5.51824
Ow 11.968 21.9429 7.02167
H 11.7203 21.0574 7.28779
H 12.8816 22.0287 7.29426
Ow 16.8312 8.31836 5.05414
H 16.6339 7.39839 4.87816
H 16.7304 8.75179 4.20667
Ow 22.1457 4.86063 5.65437
H 23.053 4.73937 5.93398
H 21.6232 4.56107 6.39836
Ow 11.996 11.5897 9.03783
H 11.4229 10.9954 9.52233
H 11.4929 11.8261 8.25858
Ow 24.9737 4.57892 6.42436
H 24.9104 4.37325 7.35706
H 25.3557 3.79435 6.03097
Ow 6.2646 20.4764 19.3132
H 6.48919 21.0741 20.0263
H 7.09613 20.069 19.0707
Ow 14.2752 18.1088 0.380984
H 15.0693 17.5784 0.447098
H 13.5653 17.4704 0.311921
Ow 3.07953 12.3044 6.93356
H 3.7456 11.8874 7.4801
H 3.57523 12.866 6.3376
Ow 24.7857 1.03609 8.02847
H 24.9161 1.8459 8.52188
H 25.2185 0.362852 8.55355
Ow 11.4247 22.9437 4.67634
H 11.5625 22.8876 5.62191
H 10.8773 22.1865 4.46821
Ow 22.3649 10.9593 2.26193
H 21.6069 10.7849 2.81985
H 22.0819 10.7006 1.38486
Ow 24.2513 4.37196 23.7311
H 23.691 3.86314 24.317
H 24.008 5.28269 23.8972
Ow 14.3465 1.35988 14.1759
H 14.5809 2.16801 13.7197
H 14.4877 1.55739 15.1018
Ow 3.84457 7.66774 14.302
H 2.90181 7.55565 14.424
H 4.23505 7.29145 15.0907
Ow 11.2218 13.5463 22.5715
H 10.8136 12.6913 22.4353
H 11.6566 13.4721 23.421
Ow 0.455232 24.4373 19.4841
H 0.499226 24.3216 18.5349
H 1.36195 24.3515 19.7786
Ow 17.7818 13.5417 21.8082
H 18.1818 12.869 22.3594
H 17.7113 14.3078 22.3776
Ow 6.54745 4.94288 0.443321
H 6.14793 4.21083 0.913126
H 6.0159 5.70153 0.684468
Ow 23.7169 7.03444 17.359
H 24.6406 7.00083 17.1102
H 23.474 6.11999 17.504
Ow 15.9393 24.7427 2.40582
H 16.7362 25.1545 2.07151
H 15.2316 25.3171 2.11349
Ow 16.3528 20.0198 14.4766
H 15.613 20.6269 14.4555
H 16.2178 19.4506 13.7189
Ow 15.1302 23.4315 10.3366
H 15.719 24.1233 10.0353
H 15.7102 22.7045 10.5631
Ow 19.3603 10.5601 12.7132
H 19.228 10.5818 11.7654
H 19.6571 11.4428 12.9344
Ow 20.5092 3.96197 16.9594
H 20.6267 3.20276 16.3884
H 21.399 4.25715 17.1524
Ow 25.0176 10.2817 2.56031
H 25.5629 11.0148 2.27472
H 24.1397 10.6539 2.64374
Ow 4.67165 12.7534 22.2683
H 5.00942 12.063 21.6977
H 5.19932 12.6865 23.0642
Ow 10.4489 10.5834 19.8705
H 11.2396 10.1287 20.1609
H 10.0719 10.9453 20.6724
Ow 22.5894 10.5331 25.0055
H 23.498 10.2694 24.8598
H 22.5165 11.3876 24.5804
Ow 8.37751 21.3717 7.16691
H 8.96762 20.898 7.7531
H 8.78567 21.2977 6.30427
Ow 20.0215 4.12282 7.54142
H 19.3069 3.50081 7.67805
H 20.6112 3.97723 8.28126
Ow 4.49126 22.4637 14.0616
H 4.39182 22.6743 13.1332
H 3.60729 22.5395 14.4209
Ow 22.8603 20.8423 1.39049
H 23.0947 19.9915 1.01985
H 23.4955 21.4513 1.01402
Ow 23.4244 18.9587 16.1532
H 23.2901 18.1114 16.5779
H 22.8623 18.9308 15.379
Ow 22.9137 0.920914 3.86765
H 22.2913 1.64572 3.92692
H 22.647 0.438986 3.0848
Ow 16.5542 18.0738 12.4883
H 17.0299 18.1633 11.6625
H 15.6816 17.7758 12.2315
Ow 24.5137 20.6746 8.87817
H 24.6103 21.531 9.29472
H 23.8804 20.2112 9.42631
Ow 2.96771 2.51495 7.65595
H 3.58791 2.44671 8.38184
H 3.22062 1.81216 7.05732
Ow 8.22867 24.2171 10.1641
H 7.58741 23.5162 10.0471
H 8.0247 24.5882 11.0225
Ow 24.6274 12.1356 14.6698
H 24.9822 12.5406 13.8784
H 25.3957 11.8056 15.1357
Ow 14.1994 18.9218 8.101
H 13.2608 18.7967 7.96119
H 14.255 19.4541 8.89465
Ow 15.3044 8.90829 22.697
H 15.2733 9.00439 21.7452
H 15.6557 9.7415 23.011
Ow 13.8165 8.34048 5.61289
H 14.7384 8.55506 5.47044
H 13.6011 8.75111 6.45029
Ow 19.9533 24.5634 4.20931
H 20.3878 25.333 4.57686
H 19.4738 24.1839 4.94573
Ow 16.3163 0.793185 7.07469
H 16.0632 1.63011 6.68517
H 16.2234 0.159532 6.36329
Ow 10.4358 25.6378 20.4152
H 11.2253 25.7035 20.9524
H 10.6192 0.551471 19.6512
Ow 17.9722 24.4433 9.20285
H 17.9043 24.1504 8.29409
H 18.9117 24.441 9.38618
Ow 13.9487 22.4816 23.7989
H 14.6841 22.1209 23.3037
H 13.3519 22.8188 23.1309
Ow 1.3565 4.94667 18.3594
H 2.29506 5.08072 18.4912
H 1.12946 5.53238 17.6372
Ow 14.5028 3.85281 13.2687
H 14.3678 4.45182 12.5345
H 15.4325 3.93798 13.4801
Ow 8.03374 22.351 14.411
H 7.89241 23.1367 13.8828
H 8.48233 21.7437 13.8225
Ow 19.7247 22.7378 21.7368
H 19.478 22.2048 20.981
H 20.6128 23.036 21.5406
Ow 6.61769 22.4805 8.9164
H 6.14688 23.2011 8.49775
H 7.24194 22.1846 8.25383
Ow 18.8515 11.0481 22.8433
H 19.7464 10.7151 22.7764
H 18.5164 10.6739 23.658
Ow 6.22642 6.54769 20.3962
H 6.56768 5.6865 20.1551
H 6.43385 7.10636 19.6471
Ow 23.4989 13.0721 17.1658
H 23.5981 12.2151 17.5805
H 23.7852 12.9362 16.2626
Ow 4.89853 10.1093 13.4598
H 4.56264 9.23588 13.661
H 4.15259 10.5709 13.0768
Ow 22.4831 13.018 21.2982
H 22.4497 12.1818 20.8336
H 21.6485 13.4397 21.0935
Ow 21.9459 23.4541 20.5982
H 22.853 23.3695 20.892
H 21.8065 24.3978 20.5186
Ow 23.6038 13.3948 2.99468
H 23.2328 12.6372 2.54248
H 24.1372 13.8327 2.33135
Ow 20.5371 21.2086 13.2334
H 20.1409 21.2317 12.3624
H 20.6332 22.1291 13.4778
Ow 19.1469 14.8738 17.8542
H 19.5976 14.0729 17.5864
H 19.494 15.5503 17.2729
Ow 22.3553 12.972 23.9667
H 22.8145 13.7799 24.1962
H 22.4527 12.902 23.0171
Ow 19.6603 12.4601 16.7612
H 19.6647 11.8595 17.5065
H 18.7371 12.5368 16.5203
Ow 15.1256 22.5221 0.843447
H 15.5105 23.2764 1.28966
H 15.2649 22.697 25.5458
Ow 3.38677 14.9937 23.9073
H 3.84596 15.5278 24.5554
H 3.13209 14.2038 24.3842
Ow 7.37481 0.669632 1.79903
H 8.16762 1.04368 1.41461
H 6.6758 1.26949 1.53867
Ow 12.5066 13.7989 18.0704
H 12.7443 13.4196 18.9165
H 11.6819 13.3717 17.8391
Ow 10.5836 18.5863 23.2897
H 10.3434 18.9336 24.1487
H 11.3479 19.0998 23.0284
Ow 21.6778 8.16693 1.84358
H 21.953 8.51665 2.69105
H 22.4844 8.11922 1.33033
Ow 16.7916 1.63964 19.0179
H 17.7431 1.66321 19.1188
H 16.4691 2.30391 19.627
Ow 15.669 24.5645 19.5365
H 14.8353 24.8536 19.1656
H 16.2669 25.2959 19.3821
Ow 20.5006 0.984297 11.4409
H 19.78 1.60951 11.3635
H 21.0985 1.38425 12.0723
Ow 7.72797 23.9321 17.6824
H 8.26698 23.1774 17.9192
H 8.29359 24.4651 17.1237
Ow 14.873 15.5346 18.6725
H 15.5984 15.8439 19.2151
H 14.5037 14.7995 19.162
Ow 25.4164 18.5513 7.33407
H 0.672981 18.762 7.05053
H 25.2247 19.1919 8.01896
Ow 18.0099 2.15154 22.8871
H 17.4453 2.33683 23.6376
H 17.8638 1.22423 22.7001
Ow 6.85365 11.8868 24.342
H 6.52114 11.0032 24.184
H 6.51845 12.118 25.2083
Ow 22.6421 19.982 11.3104
H 22.3674 20.8972 11.3677
H 22.6664 19.6814 12.2188
Ow 25.1306 12.805 20.5587
H 25.3121 11.8991 20.3086
H 24.1976 12.8126 20.7725
Ow 22.6576 25.0455 1.27763
H 22.9926 24.7559 0.428998
H 21.7376 25.2532 1.11434
Ow 10.079 9.03144 8.32241
H 10.2582 8.82652 7.40473
H 10.545 8.35565 8.81466
Ow 20.7662 24.47 9.85444
H 20.8616 25.3291 10.2655
H 21.2542 24.5409 9.03401
Ow 8.4942 3.02503 13.36
H 7.56089 2.81278 13.3703
H 8.56756 3.81122 13.901
Ow 11.5044 19.4919 7.89206
H 10.9802 18.9791 7.27687
H 10.9134 19.6646 8.62499
Ow 10.0751 3.37606 8.08448
H 9.93595 3.39154 7.13757
H 10.2236 2.4531 8.29017
Ow 21.8831 21.9119 8.12159
H 22.1932 22.4644 7.40405
H 22.3763 22.2113 8.88539
Ow 15.6298 2.43398 16.3805
H 15.2376 3.168 16.8534
H 16.2102 2.01974 17.0191
Ow 3.02551 7.78576 20.4693
H 3.79826 8.26238 20.7725
H 2.32675 8.0584 21.064
Ow 13.9036 13.831 1.84738
H 13.6152 13.8066 2.75979
H 14.7831 13.4537 1.86348
Ow 18.2596 22.2943 17.186
H 18.3088 21.9584 18.081
H 17.3226 22.3976 17.0197
Ow 9.02813 2.28461 21.3903
H 9.515 1.46319 21.3234
H 9.47459 2.87802 20.7863
Ow 14.7828 22.7685 7.20564
H 15.1586 23.0294 8.04642
H 15.3587 23.1651 6.55194
Ow 15.1772 20.3657 5.91037
H 14.6708 19.6462 6.28741
H 15.0774 21.0831 6.53616
Ow 20.8083 0.525243 21.2215
H 20.1948 0.699607 21.9353
H 20.4932 1.06549 20.4969
Ow 2.59386 17.0493 22.5217
H 1.63806 16.9994 22.5077
H 2.86327 16.3329 23.0964
Ow 11.299 15.7778 10.6279
H 11.9351 16.4127 10.9573
H 10.5698 15.8257 11.2462
Ow 0.969375 14.6883 19.2191
H 1.32056 14.5548 18.3387
H 0.322595 13.9911 19.3278
Ow 2.11781 23.9196 1.50641
H 2.61504 24.6458 1.88274
H 1.37619 23.8033 2.1003
Ow 11.2062 1.55621 18.4684
H 10.4652 1.73008 17.8879
H 11.3141 2.36514 18.9686
Ow 11.1395 23.711 16.8087
H 10.8417 22.8118 16.947
H 11.7046 23.6607 16.0378
Ow 15.3388 18.7158 23.5573
H 15.8737 17.9805 23.2582
H 14.9771 18.4246 24.3942
Ow 20.7621 23.8856 14.0693
H 21.4178 24.5598 14.2478
H 20.2574 23.8211 14.88
Ow 19.7092 24.6638 17.1903
H 19.0822 24.9452 16.524
H 19.384 23.812 17.4815
Ow 23.361 9.77667 17.3868
H 23.0577 8.89524 17.1693
H 22.9654 9.96336 18.2382
Ow 19.502 9.50709 15.2854
H 19.2859 10.1084 14.5727
H 19.5242 10.0593 16.0669
Ow 16.2679 3.07238 24.667
H 15.4922 3.60244 24.4839
H 15.9496 2.36813 25.2317
Ow 20.0146 14.2459 24.1926
H 20.7194 13.6005 24.1376
H 19.3248 13.8061 24.6896
Ow 9.87186 3.04716 5.29361
H 9.06372 3.55606 5.22913
H 10.318 3.19868 4.46041
Ow 5.6317 2.79871 13.1716
H 5.05149 2.86349 12.4131
H 5.11416 3.14268 13.8997
Ow 24.984 9.25575 24.2268
H 25.7593 9.44482 24.7553
H 24.7036 8.38691 24.5143
Ow 19.6711 1.73756 18.9373
H 19.7136 0.880255 18.5137
H 19.8732 2.36049 18.2392
Ow 22.9894 17.0766 21.2844
H 23.0366 18.0325 21.2958
H 22.2032 16.869 21.7893
Ow 22.5761 7.52791 14.8722
H 22.9624 7.2541 15.704
H 23.3224 7.80431 14.3404
Ow 25.5507 10.1696 11.3681
H 0.668534 10.7155 11.6015
H 25.6054 10.0804 10.4166
Ow 17.791 7.56058 21.4657
H 17.306 8.38071 21.3743
H 18.5819 7.68991 20.9423
Ow 17.2585 22.7377 13.2316
H 16.6809 23.5001 13.2687
H 16.6718 21.9873 13.3259
Ow 1.53439 18.116 19.8389
H 2.06866 17.3224 19.8714
H 0.906989 17.9542 19.1343
Ow 2.74838 19.5961 10.5096
H 2.95371 19.8476 11.41
H 2.2006 18.8161 10.5973
Ow 17.5686 20.6788 8.61607
H 17.0931 19.9632 8.19402
H 18.2809 20.8837 8.01039
Ow 7.73391 19.43 10.8633
H 7.57388 18.6024 10.4096
H 8.12039 19.1737 11.7007
Ow 12.8024 19.9963 22.8805
H 13.5952 19.4685 22.7856
H 13.0938 20.7878 23.3332
Ow 6.64558 6.27269 7.61396
H 6.28802 6.98458 7.08332
H 6.99338 5.64933 6.97623
Ow 22.624 2.3055 24.9366
H 22.6967 2.80439 25.7503
H 22.1039 1.53712 25.1719
Ow 3.30822 24.2966 20.2124
H 3.33144 24.1015 21.1493
H 4.20162 24.568 20.0016
Ow 25.2987 16.425 22.4838
H 24.5452 16.8129 22.0388
H 24.9162 15.8339 23.1324
Ow 3.27285 3.94258 3.46032
H 3.78826 3.52549 2.76994
H 2.36722 3.70636 3.25966
Ow 1.47589 24.6627 23.4207
H 1.43088 25.3159 24.1189
H 0.690339 24.129 23.5404
Ow 10.0674 15.1261 25.3342
H 9.7347 14.2777 25.627
H 9.55433 15.7677 0.192429
Ow 4.39744 14.7028 20.3606
H 4.72868 14.3186 19.5489
H 4.75032 14.1433 21.0524
Ow 1.90651 16.7991 8.70439
H 1.95454 16.0463 8.11515
H 1.97268 17.56 8.12746
Ow 15.8659 25.1649 12.792
H 15.3299 25.7404 13.3376
H 15.357 25.0528 11.9892
Ow 20.2398 16.7295 21.7409
H 20.3441 15.8868 21.299
H 19.4945 16.602 22.3278
Ow 3.64288 10.1908 2.13587
H 4.45009 10.6698 1.94823
H 2.94368 10.8199 1.95814
Ow 4.42968 3.63683 15.4459
H 3.69166 3.2363 15.9054
H 4.49843 4.51458 15.8215
Ow 12.7077 16.1922 21.8966
H 12.8084 16.1435 22.8473
H 13.1658 15.4191 21.5669
Ow 5.04878 18.0514 9.37306
H 5.02268 17.4667 10.1305
H 4.17888 17.9753 8.981
Ow 22.9865 20.5587 4.34727
H 23.1906 20.7644 3.43498
H 23.5263 19.7939 4.54736
Ow 1.1614 4.38509 11.1335
H 1.93476 3.82623 11.2098
H 0.848786 4.48636 12.0325
Ow 17.5777 18.4075 7.02752
H 17.9047 17.7506 7.64226
H 16.8142 17.9972 6.62149
Ow 21.1658 13.1133 7.36263
H 20.4152 13.686 7.20498
H 21.7706 13.3077 6.64664
Ow 18.6932 18.6279 10.3871
H 19.1227 18.0386 9.76696
H 18.4504 19.3916 9.8637
Ow 4.95499 16.1955 25.6929
H 4.67464 17.1087 25.7529
H 5.00909 15.9009 0.969022
Ow 19.7915 3.40329 24.8997
H 20.3579 3.88295 24.2953
H 19.227 2.87721 24.3333
Ow 13.8405 17.889 17.0987
H 14.1959 17.8897 17.9875
H 14.5412 17.5209 16.5604
Ow 19.0939 10.813 10.1651
H 19.673 10.124 9.8394
H 19.6471 11.5932 10.2034
Ow 16.3865 10.4662 15.1502
H 16.2891 9.85321 15.8789
H 15.5463 10.9226 15.1065
Ow 8.9727 11.5992 22.0398
H 9.29986 10.8922 22.5961
H 8.24893 11.9803 22.537
Ow 1.02599 23.8769 12.3751
H 1.78879 24.444 12.2621
H 0.714204 23.7138 11.4849
Ow 10.9608 0.547951 8.02579
H 11.5856 0.688434 8.73725
H 11.4546 0.746441 7.23014
Ow 19.2496 2.60959 13.6706
H 19.7258 3.43168 13.5538
H 18.6079 2.60096 12.9605
Ow 20.1055 16.4989 16.0842
H 20.9986 16.1789 16.2121
H 20.0908 17.3504 16.5211
Ow 20.5701 1.45642 1.27819
H 20.7286 1.93675 2.09084
H 20.0577 2.05905 0.739223
Ow 5.90786 24.9369 19.6936
H 6.0496 24.6134 20.5833
H 6.57437 24.4943 19.1682
Ow 23.4306 12.9535 5.80766
H 24.0053 12.2196 6.02528
H 23.2665 12.8598 4.8693
Ow 18.046 2.95989 1.60986
H 18.5445 3.03271 2.42379
H 17.7859 3.85835 1.40654
Ow 0.895851 3.24552 2.63842
H 0.701944 2.30917 2.59505
H 1.11722 3.48667 1.73894
Ow 11.912 6.1902 25.052
H 12.7199 5.75713 24.7765
H 11.5445 6.54891 24.2442
Ow 3.28645 16.5534 4.11035
H 3.18653 17.1467 3.36585
H 3.37236 17.1317 4.86823
Ow 22.368 10.4742 19.8814
H 21.4378 10.5764 19.6801
H 22.3947 9.79304 20.5534
Ow 25.393 20.8214 22.4918
H 25.5145 20.472 23.3746
H 0.621035 20.7415 22.0815
Ow 4.34492 10.3588 18.263
H 3.45437 10.0283 18.145
H 4.55916 10.7747 17.4279
Ow 19.6063 21.1296 6.817
H 20.3992 21.2595 7.33723
H 19.2074 21.9983 6.76655
Ow 20.8395 1.2868 6.20944
H 20.8224 2.23591 6.08637
H 20.074 1.10153 6.75343
Ow 17.2552 10.3756 20.791
H 17.697 10.6571 21.5922
H 17.9595 10.0504 20.2302
Ow 7.74432 8.16406 9.57416
H 7.45873 7.52402 8.92222
H 8.4053 8.68847 9.12212
Ow 10.4565 8.89092 15.8702
H 11.3192 8.53116 16.0764
H 9.90273 8.62166 16.603
Ow 24.148 4.25182 1.46071
H 24.9946 4.32411 1.90136
H 23.9646 5.13717 1.14643
Ow 19.1546 22.1334 11.0683
H 18.3129 21.6792 11.1088
H 19.3293 22.2319 10.1324
Ow 20.1253 7.56037 19.726
H 20.6755 7.68822 20.4988
H 20.1124 8.41567 19.2964
Ow 5.27872 9.02895 21.651
H 5.67592 8.18986 21.8842
H 4.79188 9.28957 22.4329
Ow 10.6189 16.1021 16.2291
H 10.9132 16.8819 15.7584
H 9.66351 16.1585 16.2133
Ow 12.6377 23.0938 21.1376
H 13.0038 23.9476 20.9068
H 11.7433 23.1163 20.7971
Ow 0.712748 6.93383 16.8217
H 1.06063 7.0453 15.9369
H 1.2029 7.5612 17.3531
Ow 13.4731 6.39622 19.5639
H 12.8279 5.68991 19.5961
H 13.0225 7.15045 19.9437
Ow 12.6074 4.35177 8.65683
H 11.7374 3.98055 8.50962
H 12.9217 4.5808 7.78221
Ow 17.3379 4.20342 15.1936
H 16.8665 3.54003 15.6975
H 17.882 3.70187 14.5865
Ow 22.8719 10.5432 11.6157
H 22.4673 11.3168 11.223
H 23.805 10.6371 11.4241
Ow 25.2423 25.0829 14.1865
H 25.4938 24.7956 13.3087
H 24.3464 25.4048 14.0861
Ow 3.95299 3.19477 11.1123
H 4.14827 2.50648 10.4765
H 4.42055 3.96331 10.7853
Ow 20.8525 5.73437 23.8104
H 21.4238 6.46944 23.5879
H 20.026 6.1424 24.0687
Ow 23.3752 23.9979 23.9236
H 23.8318 23.3782 24.4926
H 23.7266 23.8255 23.0501
Ow 16.5877 16.7208 0.70958
H 17.246 17.1039 25.7629
H 16.2171 15.9959 0.206032
Ow 4.41539 0.932395 24.6962
H 3.46401 0.977692 24.6011
H 4.61387 1.53503 25.4129
Ow 15.3007 12.0483 5.38337
H 15.8765 12.8069 5.28807
H 14.4325 12.4231 5.53158
Ow 12.4202 13.3135 3.93042
H 12.22 12.5545 3.38272
H 12.1723 13.0435 4.81466
Ow 25.2625 18.8312 11.6588
H 25.6523 19.428 12.2976
H 24.5715 19.3451 11.2408
Ow 9.15321 25.4878 15.7114
H 8.67347 25.4095 14.8868
H 9.82933 24.8121 15.6607
Ow 24.8339 12.591 8.87528
H 23.913 12.4569 8.65157
H 25.2545 11.7556 8.67164
Ow 1.61171 1.2069 25.0635
H 1.80493 2.119 25.2803
H 1.16232 0.866434 0.204038
Ow 20.3708 19.559 4.73777
H 21.2488 19.8624 4.50669
H 20.0392 20.2225 5.34279
Ow 18.5583 18.2759 24.9851
H 18.2583 17.9499 24.1366
H 19.1413 17.5912 25.3128
Ow 4.53111 2.81356 19.4549
H 4.88176 2.23679 18.7762
H 4.52079 3.68118 19.0507
Ow 20.2578 19.0346 20.4202
H 20.9925 19.4809 20.8411
H 20.2454 18.1644 20.8185
Ow 15.4343 5.02882 1.89307
H 16.2721 5.1815 2.33022
H 15.6698 4.82166 0.988708
Ow 25.6475 6.96684 2.82121
H 0.173387 7.86401 3.1146
H 25.2881 7.06286 1.93926
Ow 0.819818 20.6986 3.69434
H 0.532601 19.903 4.14237
H 1.74508 20.7829 3.92458
Ow 16.765 8.81597 17.6157
H 17.4594 9.4434 17.8167
H 16.7945 8.18638 18.3361
Ow 24.0768 9.06095 5.67624
H 23.649 8.51603 5.01573
H 24.9741 9.16279 5.35885
Ow 0.408995 2.15074 22.7265
H 0.761659 1.72045 23.5055
H 25.6753 2.9729 23.0518
Ow 8.60932 11.5664 6.95239
H 9.427 11.9925 6.69542
H 8.60324 10.7438 6.4629
Ow 11.9707 3.31207 22.3698
H 12.0015 3.7632 21.5261
H 11.2894 3.77009 22.8621
Ow 0.882998 21.118 18.1316
H 1.68668 21.6379 18.1413
H 1.05035 20.4294 17.4882
Ow 12.3567 22.6921 1.68958
H 13.0175 23.0116 1.07514
H 12.1665 21.8012 1.39552
Ow 16.5635 14.3134 8.90944
H 16.2868 13.5086 8.47115
H 15.8561 14.9351 8.73858
Ow 6.9809 25.385 5.93069
H 6.40124 24.9508 5.30479
H 7.83171 25.4094 5.49278
Ow 7.04149 17.7155 7.36359
H 6.38346 17.661 8.05659
H 7.87131 17.5368 7.80598
Ow 19.5017 21.4778 19.4361
H 19.1907 20.6039 19.6725
H 20.1365 21.3253 18.7362
Ow 3.08564 7.469 24.351
H 2.33485 7.52407 24.9422
H 2.99942 6.61235 23.9328
Ow 24.3976 7.4693 19.9824
H 24.1976 7.14885 19.1029
H 23.5483 7.72101 20.345
Ow 2.53212 13.6473 16.8797
H 3.27095 13.9936 17.3801
H 2.86697 12.8432 16.4828
Ow 10.0916 22.9057 19.9848
H 9.20536 22.6762 20.2644
H 10.1345 23.8572 20.0801
Ow 9.53045 6.24668 3.78868
H 8.91197 5.69614 4.26891
H 10.3878 6.00823 4.14118
Ow 3.03468 9.9965 23.2382
H 2.27439 10.1518 22.6778
H 2.99582 9.06203 23.4419
Ow 9.6192 18.214 19.5787
H 10.2005 18.9701 19.6601
H 9.28642 18.2626 18.6825
Ow 5.54809 14.457 2.57406
H 5.63205 15.3012 3.01726
H 6.45 14.1674 2.43649
Ow 6.44179 17.5537 2.42916
H 7.09845 17.4944 1.73525
H 5.76569 18.1291 2.07124
Ow 2.64139 6.60546 10.4912
H 2.13144 5.88119 10.854
H 2.72047 6.40031 9.55961
Ow 6.13134 11.5757 20.0012
H 6.04624 10.8913 20.665
H 5.47708 11.351 19.3396
Ow 0.962613 9.47504 4.81644
H 1.86587 9.36901 4.51793
H 0.585889 10.1194 4.2172
Ow 12.5426 1.9611 10.094
H 13.3752 1.49157 10.0435
H 12.6414 2.69134 9.48308
Ow 14.746 10.686 3.147
H 15.5189 10.3768 2.67444
H 15.0951 11.0795 3.94667
Ow 18.536 7.17232 24.2007
H 18.9725 8.02315 24.2426
H 18.2597 7.08899 23.288
Ow 12.8916 9.674 23.8198
H 12.9569 10.5785 23.5134
H 13.6585 9.23859 23.4476
Ow 13.2039 25.0674 24.5171
H 13.0206 25.485 23.6755
H 13.6532 24.2537 24.2884
Ow 9.772 6.61465 20.2528
H 9.85459 7.32207 19.6133
H 10.4591 5.99289 20.013
Ow 5.61041 1.62616 17.1125
H 5.50984 2.1511 16.3185
H 5.26101 0.766491 16.8778
Ow 11.219 9.30276 0.436409
H 11.8985 9.34603 25.3966
H 11.4954 9.93719 1.09774
Ow 3.86757 3.15987 22.1447
H 4.18903 3.0378 21.2514
H 4.53395 3.70142 22.5677
Ow 12.9533 0.278141 3.71223
H 12.9849 0.211244 4.66656
H 12.1563 0.777031 3.53289
Ow 7.25145 16.0323 23.9578
H 7.19007 16.6356 23.2172
H 6.36238 15.9939 24.3104
Ow 20.3446 16.8077 4.12767
H 19.4327 16.9379 3.86743
H 20.6564 17.6833 4.35632
Ow 9.72463 1.72983 0.600643
H 10.0586 0.860967 0.377503
H 10.3509 2.07094 1.23914
Ow 11.257 7.37879 22.5518
H 11.9117 7.99558 22.2245
H 10.7483 7.13594 21.7782
Ow 18.346 22.4697 25.7496
H 17.9763 22.4463 0.999154
H 19.0537 23.1121 0.169802
Ow 25.0209 3.61529 9.11956
H 25.6484 3.82936 9.80989
H 24.1923 3.98402 9.42572
Ow 6.21506 4.87485 23.1214
H 6.37289 5.0749 24.0441
H 6.54037 5.64206 22.6505
Ow 18.8837 3.34662 4.23136
H 18.5668 2.46847 4.44271
H 18.2044 3.93335 4.56377
Ow 21.4431 21.1897 24.9085
H 21.8784 21.0997 25.7563
H 21.9433 20.6236 24.3207
Ow 1.2481 3.8021 25.4928
H 0.445341 4.29833 25.6527
H 1.59124 4.15837 24.6733
Ow 14.9212 6.06462 21.8881
H 14.3797 6.38656 21.1674
H 15.004 6.8131 22.4789
Ow 13.8369 5.65253 6.34236
H 13.5854 6.57394 6.27885
H 14.7824 5.65099 6.19358
Ow 16.25 11.9511 18.6637
H 16.8132 11.8407 19.4298
H 16.5415 12.7724 18.2678
Ow 4.5932 22.8655 11.2302
H 4.90642 23.7216 10.9384