3072
Atoms. Timestep: 0
O 14.5044 16.7421 3.13521
H 14.1999 17.4314 2.54495
H 14.8727 16.0752 2.55565
O 31.5506 12.7821 18.3594
H 0.577944 12.1443 18.3908
H 30.7679 12.2587 18.1875
O 21.0273 20.1732 23.4744
H 20.327 19.8923 22.8854
H 21.819 20.1434 22.9373
O 7.88206 15.1594 1.9978
H 8.03207 15.2969 2.93312
H 8.43882 14.4141 1.77246
O 30.0983 13.7777 3.56291
H 29.5349 13.9709 4.31224
H 30.0465 12.8272 3.46251
O 8.90417 4.09793 11.6804
H 7.96715 3.97479 11.5285
H 8.95266 4.81562 12.3119
O 29.3902 20.9368 25.2754
H 28.4331 20.9339 25.2874
H 29.6401 20.2562 25.9004
O 6.71167 29.6167 3.22258
H 7.32532 30.3463 3.30812
H 7.02342 28.9659 3.8515
O 11.5729 19.867 9.13483
H 12.3456 19.5095 8.69734
H 11.5885 19.4749 10.0079
O 10.078 3.0531 25.9226
H 10.9611 2.78406 25.6696
H 10.2132 3.78577 26.5235
O 20.7641 30.1596 12.8613
H 21.7161 30.1212 12.9524
H 20.431 29.9601 13.7362
O 30.187 11.1686 13.4853
H 30.3168 10.2495 13.7192
H 30.8544 11.6397 13.9841
O 31.0628 15.2058 10.1208
H 30.8924 15.5872 10.982
H 30.6402 14.3475 10.1505
O 19.4438 10.7191 27.6826
H 18.6131 10.3186 27.4262
H 19.8294 11.0197 26.8598
O 26.6376 16.217 23.1147
H 27.233 16.8492 23.5174
H 25.9967 16.754 22.6488
O 18.7195 6.90201 16.8528
H 19.3523 6.98246 17.5665
H 18.5914 7.79873 16.5435
O 30.5483 7.85025 18.2958
H 31.4471 7.81935 18.6237
H 30.3475 8.78408 18.2336
O 4.86416 10.3122 15.4175
H 4.2244 9.99316 14.781
H 5.09704 9.53916 15.9317
O 11.6501 17.6029 25.3513
H 11.2893 16.7968 25.7204
H 12.4431 17.7667 25.8617
O 22.3063 15.5541 9.72503
H 21.4372 15.8416 10.0047
H 22.1947 14.6284 9.50834
O 24.2354 15.9095 11.4018
H 24.8681 15.2426 11.1349
H 23.4567 15.7254 10.8766
O 19.3221 14.2153 27.2844
H 19.5837 13.3951 26.866
H 19.8251 14.8891 26.8271
O 14.1903 22.8651 15.4688
H 14.6629 22.7156 16.2876
H 14.4016 22.1045 14.9274
O 19.6977 1.96078 21.8483
H 19.443 1.78663 22.7545
H 19.0594 2.60359 21.539
O 16.7621 15.3736 28.4175
H 17.5668 14.9111 28.1834
H 17.0605 16.2171 28.7577
O 20.045 2.66016 28.8931
H 20.5641 2.34373 29.6324
H 20.3353 2.12935 28.1513
O 28.4389 13.7131 6.32938
H 29.1863 13.4601 6.87132
H 28.2193 14.5978 6.62141
O 5.26077 18.5336 21.6775
H 4.3307 18.6237 21.8851
H 5.70742 18.6699 22.5131
O 27.5787 30.726 17.7691
H 28.2917 31.3475 17.6222
H 28.008 29.948 18.125
O 4.53987 18.6102 13.4957
H 4.95135 19.4627 13.3538
H 4.86235 18.3275 14.3515
O 13.8038 6.28647 32.0583
H 13.5406 5.44319 0.741092
H 13.3174 6.35165 31.2366
O 2.60296 24.8091 19.2339
H 3.46323 24.8567 18.8169
H 2.04495 24.3809 18.5847
O 3.55837 28.952 21.5334
H 3.6392 28.008 21.6698
H 2.62838 29.0897 21.3535
O 2.81874 19.2652 11.5742
H 3.5023 19.0091 12.1934
H 2.51476 18.4395 11.1972
O 24.332 13.558 14.5219
H 24.9032 13.1419 15.1675
H 24.7412 14.4063 14.3508
O 9.44163 5.51676 23.7115
H 10.3068 5.61356 24.1094
H 9.6205 5.24404 22.8116
O 9.33781 12.976 1.50241
H 9.1825 12.1833 2.01597
H 10.0932 13.3889 1.92085
O 2.46502 17.9793 32.0341
H 3.22801 18.463 0.66477
H 1.74424 18.6069 32.0867
O 20.7021 26.9766 9.52612
H 21.6526 26.8637 9.53041
H 20.3928 26.3819 8.84282
O 12.5128 26.3242 17.0485
H 13.3471 26.4559 17.4988
H 12.7498 25.9022 16.2226
O 30.1363 1.33642 29.2419
H 30.8144 1.71272 29.8029
H 30.4675 32.1533 29.0148
O 5.28402 28.3752 25.9777
H 5.9598 27.7251 25.7854
H 5.27011 28.9423 25.2068
O 23.9612 0.65129 15.2295
H 23.656 1.54315 15.0632
H 23.2551 31.9317 15.7329
O 5.05911 18.1515 1.88187
H 4.94695 17.7275 2.73266
H 4.87707 19.0763 2.04878
O 0.936809 5.84833 30.0256
H 1.46717 5.46086 30.7219
H 1.13307 5.31979 29.2521
O 1.88566 16.1664 10.4134
H 1.08144 15.653 10.3367
H 2.51382 15.714 9.85038
O 9.19609 23.8331 28.7323
H 10.0957 23.6315 28.9898
H 8.6641 23.1807 29.1879
O 29.7473 15.9242 31.0071
H 30.304 15.4277 31.607
H 29.2674 15.2566 30.5169
O 11.4543 30.9234 26.254
H 11.5633 30.166 25.6789
H 10.6455 31.3382 25.9539
O 28.9951 11.2573 27.1482
H 29.1039 10.9892 28.0606
H 29.8866 11.4097 26.8348
O 5.76141 3.8214 14.0625
H 5.98093 4.27004 14.8791
H 4.88176 3.47349 14.2089
O 6.66464 2.73774 22.3468
H 6.73121 3.32287 21.5922
H 7.078 3.22087 23.0624
O 12.4616 19.5877 4.73586
H 13.1325 19.73 5.40357
H 11.983 20.4157 4.69633
O 11.225 4.80147 27.786
H 12.1666 4.63618 27.7371
H 11.1161 5.33851 28.5708
O 31.7404 30.5627 9.58894
H 31.7059 29.8014 9.0098
H 0.831758 31.0446 9.30577
O 7.1905 17.2029 27.2691
H 7.13118 17.1631 28.2237
H 6.34718 17.5602 26.991
O 13.4709 26.6174 0.594484
H 13.0236 27.2861 31.7616
H 14.0522 27.1113 1.17279
O 27.9282 30.5697 27.4621
H 28.7791 30.6194 27.8977
H 28.0508 31.0455 26.6407
O 24.9915 9.83673 13.7397
H 24.4634 10.0539 14.5079
H 25.8214 9.52397 14.0996
O 4.16972 29.541 4.23905
H 3.80642 30.426 4.27076
H 5.06392 29.66 3.91892
O 3.32046 23.9809 1.52022
H 3.6361 23.1042 1.30141
H 2.45239 24.0303 1.11992
O 15.044 25.8107 21.2272
H 15.4453 25.5689 22.0619
H 14.1049 25.6919 21.369
O 31.7393 2.21477 22.6714
H 0.566684 2.76914 23.2592
H 31.8976 1.32361 22.9828
O 27.1503 8.47914 25.2013
H 26.4858 8.32472 25.8728
H 26.6976 8.3164 24.3738
O 11.1995 12.4874 5.01224
H 11.465 13.2603 4.51396
H 12.022 12.0519 5.23602
O 30.9513 24.5014 10.1186
H 30.2952 24.9436 9.57976
H 31.4115 23.9234 9.51016
O 30.6989 11.3047 2.85459
H 30.8481 10.7833 2.06584
H 30.9337 10.7211 3.57604
O 0.944258 24.7873 21.9264
H 0.586029 24.1209 21.3401
H 31.8622 25.1757 22.3458
O 13.3897 26.8359 24.5807
H 14.2938 26.5392 24.6846
H 13.0414 26.2995 23.8686
O 21.582 17.8101 0.718367
H 22.2298 17.3954 1.28811
H 21.1262 18.4317 1.2859
O 18.8449 19.1988 22.1675
H 18.7006 20.0509 21.7559
H 17.981 18.9367 22.4857
O 17.0372 4.34109 17.8928
H 17.6515 4.89674 18.3725
H 17.592 3.70927 17.4354
O 11.8768 21.6809 27.617
H 11.4487 20.8248 27.628
H 12.4842 21.6359 26.8786
O 18.5635 17.596 28.898
H 18.7913 16.8447 29.4456
H 19.3004 18.1985 28.9985
O 8.36743 31.9007 3.79112
H 9.23386 31.9567 4.19408
H 8.44448 0.724485 2.98451
O 13.9987 18.4936 16.0797
H 13.0965 18.1938 15.9684
H 14.0356 18.814 16.981
O 26.6876 27.0236 3.33148
H 26.2597 26.3705 3.88525
H 27.4258 26.5581 2.93825
O 1.4073 26.2967 10.0151
H 2.1066 25.8068 9.58257
H 0.622068 25.7672 9.87663
O 27.4418 17.4163 4.61561
H 26.775 17.9019 4.12997
H 27.6452 17.9737 5.36672
O 19.1604 3.38016 2.78619
H 18.3767 3.8209 2.45766
H 18.8664 2.92401 3.57469
O 19.9648 7.51024 19.3125
H 20.4182 8.20609 18.8366
H 19.2478 7.95588 19.7637
O 21.0798 13.4409 20.1169
H 21.774 13.6278 20.7488
H 20.5409 12.7741 20.5426
O 15.7099 26.8167 13.8746
H 16.2686 27.0593 14.613
H 15.2509 26.0302 14.1693
O 12.4892 28.9889 16.6509
H 12.5564 29.2616 15.7358
H 12.4681 28.0326 16.6154
O 15.836 23.8117 0.781413
H 16.353 23.0061 0.78711
H 15.2813 23.7354 31.6909
O 9.68031 11.0582 3.52251
H 10.2043 11.5252 4.17332
H 8.77361 11.224 3.78067
O 9.56764 28.6784 23.6015
H 9.38217 28.6638 24.5404
H 8.74007 28.9394 23.1974
O 19.3239 15.1408 16.741
H 20.171 14.9099 17.1221
H 18.9993 15.8533 17.2916
O 4.24507 1.97647 10.1957
H 3.47201 1.97868 9.63124
H 4.80363 1.2879 9.83499
O 23.3914 8.45587 4.17266
H 22.5375 8.78015 3.88639
H 24.0238 8.96455 3.66511
O 18.0046 9.25613 20.0974
H 18.1825 10.0479 19.5898
H 17.1764 8.9277 19.7474
O 23.8925 9.29355 7.03386
H 23.5489 9.3224 6.14096
H 23.6269 8.43589 7.36566
O 29.9827 6.5456 22.0797
H 30.7262 6.82071 21.5432
H 29.2177 6.91041 21.6349
O 22.8746 8.13343 13.4799
H 23.5008 7.4317 13.6579
H 23.4037 8.8381 13.1061
O 6.07373 29.3125 32.1712
H 5.13764 29.323 31.9715
H 6.11779 29.1041 1.41862
O 10.7621 2.13201 19.9782
H 11.6443 1.79866 19.8143
H 10.1813 1.45382 19.6332
O 5.35437 12.2894 5.7535
H 5.10393 12.5569 6.63777
H 4.52309 12.1299 5.30654
O 20.0652 27.0714 20.1138
H 20.1201 28.0235 20.0318
H 19.8643 26.7656 19.2293
O 12.1506 23.9659 29.1427
H 12.4282 24.5995 28.4811
H 12.0862 23.1368 28.6689
O 11.8667 0.794752 16.6529
H 12.597 1.28503 16.2753
H 11.551 31.9302 15.9361
O 16.2536 2.18346 2.47591
H 16.253 3.12118 2.28377
H 15.4127 2.02592 2.90517
O 30.0952 14.0023 23.8128
H 31.0029 13.7091 23.733
H 29.6444 13.2739 24.24
O 15.1381 7.68522 6.97694
H 14.275 8.0728 7.12235
H 15.7502 8.30971 7.36614
O 0.689823 27.0686 20.5441
H 1.05098 26.185 20.6158
H 0.700134 27.4055 21.4399
O 26.3665 15.7234 6.68031
H 26.3817 16.374 5.9783
H 25.4409 15.6394 6.90957
O 3.14157 19.444 5.56457
H 3.61818 18.6449 5.33974
H 3.77127 20.1492 5.41481
O 3.8679 5.208 27.9495
H 3.76931 6.13507 28.1664
H 3.67641 4.74855 28.7671
O 28.9829 27.597 13.5898
H 29.0176 28.2259 12.869
H 28.0817 27.6466 13.9084
O 7.68692 8.70077 14.1774
H 6.84684 8.24585 14.2369
H 8.30266 8.03003 13.8821
O 15.0798 26.8842 18.1095
H 15.6948 27.3313 17.528
H 15.5485 26.1011 18.3982
O 25.6544 15.6329 18.7323
H 25.5886 15.9875 19.6189
H 26.2577 16.2238 18.2816
O 14.6663 31.1344 14.6007
H 15.3286 30.992 15.277
H 14.8631 32.0036 14.2514
O 28.7218 16.2011 19.7271
H 28.3888 15.4378 20.199
H 28.4917 16.037 18.8125
O 28.0924 31.2149 13.4054
H 27.7347 31.0829 14.2834
H 27.342 31.1051 12.8215
O 21.2225 5.85044 30.5656
H 21.6657 6.62852 30.9038
H 20.9935 6.07745 29.6643
O 23.8467 20.6808 18.2908
H 24.3242 20.087 17.7115
H 24.4964 21.332 18.5553
O 29.4322 8.28913 31.7329
H 29.8116 8.47318 0.906401
H 29.3637 7.33494 31.7001
O 6.49593 1.52287 5.03572
H 5.73431 0.952747 4.9302
H 7.23206 1.00175 4.71515
O 5.93417 21.243 20.8707
H 5.78049 20.3176 21.0612
H 6.28204 21.6015 21.6871
O 8.94488 18.3267 5.89011
H 9.03104 18.901 6.65107
H 8.71652 18.9149 5.17027
O 26.3875 20.6111 14.4092
H 27.0519 21.2742 14.5967
H 26.7621 19.7954 14.7416
O 23.5189 30.5112 29.6339
H 24.4257 30.2439 29.484
H 23.1069 30.4569 28.7716
O 32.0821 17.7884 8.17161
H 31.5225 18.0391 8.9066
H 1.05714 17.2138 8.55818
O 5.17271 26.9097 10.4656
H 5.81137 26.3178 10.8631
H 5.68925 27.6631 10.1798
O 3.37032 3.29792 23.2361
H 4.26522 3.37023 22.9043
H 3.47246 2.98982 24.1366
O 7.38342 24.8223 21.2323
H 7.20821 24.2134 21.9498
H 6.84085 25.5862 21.428
O 19.9347 23.1128 5.07457
H 19.1166 23.5794 4.90331
H 20.5965 23.6008 4.58453
O 10.5866 11.0902 18.5245
H 10.8128 11.615 17.7566
H 9.9771 11.6383 19.0187
O 19.7657 13.6846 3.06948
H 19.7779 13.4389 3.99452
H 19.5614 14.6198 3.07228
O 20.4392 18.4446 18.0936
H 21.0002 17.6744 18.0033
H 19.5508 18.1102 17.9709
O 9.61114 30.4488 19.7068
H 8.87043 29.8516 19.6021
H 10.0687 30.4132 18.8669
O 9.55958 22.4994 6.09281
H 9.55996 23.2856 6.63883
H 9.50106 21.7748 6.71549
O 17.6598 3.67296 21.6489
H 17.3926 4.52264 21.9995
H 17.0522 3.50915 20.9276
O 4.18356 31.6332 7.51746
H 3.99646 31.5915 6.57965
H 4.87109 30.9814 7.65422
O 12.6145 9.81583 0.580251
H 12.8078 10.7425 0.722309
H 13.4016 9.35842 0.876213
O 11.7099 16.1826 9.03891
H 11.2732 15.986 8.21014
H 10.9952 16.3543 9.65199
O 22.2005 13.9714 24.3102
H 22.6374 13.7571 23.4859
H 22.8941 13.9266 24.9682
O 24.6305 23.7053 26.8357
H 24.0981 22.9109 26.7947
H 25.4822 23.4072 27.1549
O 8.89196 9.65621 30.5118
H 8.81122 9.06945 31.2637
H 9.57445 9.25977 29.9702
O 12.2395 6.77183 16.1496
H 11.5426 6.12047 16.0697
H 12.0589 7.40307 15.453
O 14.2919 26.2974 4.42858
H 14.2035 25.4902 4.93538
H 13.3968 26.625 4.34108
O 22.6822 5.772 21.9498
H 23.0137 5.06237 22.5001
H 21.9873 5.36808 21.43
O 11.7822 14.1486 2.64827
H 12.2874 14.9441 2.81577
H 12.4069 13.549 2.24018
O 11.7749 29.0321 20.8139
H 11.2091 29.6407 20.3387
H 11.1694 28.4374 21.2566
O 4.25328 4.70625 8.43467
H 3.87428 5.39139 7.88406
H 5.00958 5.12203 8.84864
O 26.1912 26.5805 6.68717
H 27.1445 26.6206 6.61159
H 25.954 25.7425 6.29007
O 13.8653 25.0115 8.4889
H 14.3074 25.7066 8.00144
H 13.8838 24.2566 7.90059
O 10.8023 15.1409 16.7751
H 11.4568 14.4604 16.6179
H 10.0466 14.6705 17.1269
O 2.20532 7.52448 12.981
H 2.73579 7.96097 12.3144
H 1.47138 7.14827 12.4951
O 23.8343 29.9675 19.9322
H 23.3637 29.3108 19.4188
H 24.3557 30.4469 19.2884
O 2.34895 31.6473 11.6829
H 1.88904 30.9269 12.1138
H 2.07919 0.742114 12.1669
O 15.4779 3.27537 26.4796
H 15.2798 2.39972 26.8116
H 15.0211 3.86756 27.077
O 31.9564 11.5442 26.2507
H 31.6955 11.9491 27.0779
H 32.103 12.2816 25.6583
O 16.7746 12.9463 20.3202
H 17.2108 13.7861 20.464
H 17.3356 12.4886 19.694
O 19.0032 5.99601 0.830286
H 19.7448 5.81937 31.9372
H 19.3738 6.5158 1.54349
O 18.9992 16.3729 3.38634
H 18.224 16.0701 3.8593
H 19.2107 17.2161 3.78705
O 16.1332 24.1487 26.3509
H 15.75 24.9391 26.7313
H 15.4942 23.46 26.5343
O 23.3478 2.47521 18.2121
H 22.9524 2.74906 19.0397
H 23.9146 1.7409 18.4483
O 12.9607 12.215 24.3957
H 13.1371 12.0449 25.321
H 13.6446 12.8297 24.1301
O 1.54785 7.00112 8.86254
H 0.79102 7.51679 9.14096
H 1.25509 6.09197 8.92551
O 22.854 18.9024 4.7135
H 22.8938 17.9474 4.66329
H 22.1081 19.1409 4.16301
O 3.07767 28.407 11.7375
H 3.53414 27.6745 11.3236
H 3.74797 29.0834 11.8347
O 17.7408 29.874 26.661
H 16.8903 29.5847 26.3304
H 17.8137 30.7837 26.3723
O 10.6027 13.6962 30.4459
H 10.0781 13.4447 31.206
H 11.4099 13.1891 30.5329
O 6.24669 3.54865 11.3612
H 5.75584 2.79261 11.0391
H 6.05671 3.5764 12.2989
O 30.6067 24.4469 29.1206
H 31.5192 24.5064 29.4033
H 30.3818 25.3362 28.847
O 18.9737 26.1759 17.8286
H 18.2401 25.7808 18.2997
H 18.5755 26.8696 17.3026
O 0.82143 30.7874 20.4275
H 32.1896 31.6883 20.4892
H 31.7375 30.2485 20.6104
O 8.87962 29.0639 31.6908
H 9.18512 28.5055 30.9759
H 7.92494 29.0317 31.6293
O 25.5612 18.902 3.36438
H 24.6642 19.0354 3.67058
H 25.4915 18.9023 2.40973
O 25.6074 2.18903 2.99368
H 26.3243 1.94902 3.58076
H 24.8137 1.98452 3.48805
O 27.6438 8.726 13.6448
H 28.4947 8.66847 14.0794
H 27.5224 7.86703 13.2402
O 22.2702 13.4197 1.87584
H 22.8483 14.0242 2.34138
H 21.4556 13.4317 2.37834
O 26.821 23.1395 24.4556
H 26.1343 23.797 24.3447
H 27.1888 23.0264 23.5792
O 24.4159 28.4899 6.2575
H 25.0457 27.8183 6.51923
H 24.4704 28.5108 5.30208
O 30.3655 16.6231 22.9972
H 30.1729 15.7073 23.198
H 31.0919 16.5848 22.3751
O 22.3767 26.0296 25.8549
H 23.0157 25.9427 25.1475
H 22.1059 25.1315 26.0453
O 1.48729 22.776 12.3097
H 1.24447 23.6442 12.6313
H 2.44442 22.7825 12.3005
O 28.1553 18.1302 7.22385
H 27.2574 18.1425 7.55543
H 28.4583 17.2366 7.38448
O 18.3197 0.677681 14.6939
H 18.9117 1.35561 14.3681
H 17.4843 0.862157 14.2647
O 13.085 17.6406 29.8201
H 13.1966 18.5822 29.9511
H 13.2653 17.2559 30.6779
O 31.4304 30.5251 5.65151
H 31.5528 29.5786 5.5779
H 31.5216 30.8493 4.75552
O 5.1319 0.91831 24.3817
H 5.70176 0.733861 25.1283
H 5.71932 1.2694 23.7124
O 9.10414 12.9879 20.0872
H 9.24758 12.3813 20.8136
H 9.63473 13.754 20.3059
O 16.9525 30.8197 4.43312
H 16.0334 30.9796 4.21894
H 17.3861 30.738 3.5837
O 13.2342 12.3941 29.9885
H 13.9094 11.7821 30.2814
H 13.7091 13.2038 29.8014
O 20.3462 23.5543 19.4445
H 21.1254 23.6941 18.9064
H 20.1862 22.6119 19.3949
O 16.2771 30.6542 16.6557
H 16.4981 29.7647 16.3799
H 15.4923 30.5506 17.1939
O 14.7603 20.5236 14.4234
H 13.9562 20.6343 13.9162
H 14.5808 19.7799 14.9986
O 5.05133 12.9025 8.79612
H 5.28005 12.8239 9.72227
H 4.23144 13.3965 8.79246
O 22.6269 20.4356 11.4597
H 22.18 20.394 12.3051
H 23.5583 20.4124 11.6792
O 5.49751 5.74312 32.181
H 5.45496 5.71553 1.4511
H 4.93181 6.47559 31.9366
O 3.23573 2.0023 20.1092
H 4.10352 1.9673 19.7068
H 3.29767 1.4175 20.8645
O 5.51267 5.79848 24.0953
H 6.00725 6.27794 23.4307
H 4.88208 6.43547 24.4312
O 5.53615 9.87717 28.4869
H 5.55858 10.2799 27.6188
H 6.17673 9.16753 28.4389
O 25.9725 31.9838 22.0347
H 25.124 31.571 22.1957
H 26.5134 31.285 21.6668
O 8.4201 12.1182 25.3954
H 8.94244 12.8676 25.1094
H 8.99567 11.3634 25.272
O 31.402 1.10847 14.361
H 30.5822 1.45111 14.717
H 31.3398 31.847 14.4841
O 2.34095 4.56099 19.4169
H 1.56636 4.34683 18.8969
H 2.61933 3.72403 19.7887
O 25.3655 10.96 4.63292
H 24.6262 11.5176 4.87553
H 26.086 11.5707 4.47774
O 20.6871 19.9963 7.45929
H 21.5936 19.9085 7.16477
H 20.1646 19.6601 6.73117
O 4.44636 8.33572 19.3294
H 4.75662 7.84391 18.569
H 5.04903 9.07615 19.3985
O 21.5603 25.524 7.10113
H 21.0476 25.8453 6.3594
H 22.2066 24.9365 6.7096
O 0.579157 10.0771 7.60758
H 31.8487 9.31836 8.01659
H 32.1254 9.95047 6.6691
O 17.7664 11.8341 1.79492
H 17.0078 12.4177 1.78343
H 18.4674 12.3592 2.1811
O 28.2249 8.17094 20.6305
H 28.1455 7.96022 19.7002
H 28.7322 8.98242 20.6503
O 25.6923 30.8594 11.5632
H 25.8925 30.1674 10.9329
H 25.6322 31.6553 11.0348
O 5.96708 9.82644 12.2527
H 6.31149 9.4802 11.4294
H 6.61178 9.56652 12.9107
O 16.0456 12.8918 27.1317
H 16.6161 12.8343 27.8982
H 15.715 13.79 27.1454
O 13.4784 1.6675 3.97594
H 12.6103 1.33875 4.20929
H 13.7134 2.2554 4.69385
O 23.6246 3.04958 23.1676
H 23.736 2.11257 23.0068
H 24.1956 3.23468 23.9132
O 22.7842 16.1985 4.50998
H 22.9103 15.9785 3.587
H 22.4305 15.3996 4.90098
O 27.1624 12.8955 4.05743
H 27.5649 13.2053 4.8687
H 26.7405 13.671 3.68744
O 7.52201 18.1151 13.2923
H 8.44761 17.8713 13.2854
H 7.06642 17.3198 13.5683
O 19.8987 26.7211 5.06119
H 19.9493 27.6034 5.42886
H 18.9695 26.4956 5.1057
O 21.6279 5.45246 12.94
H 20.7245 5.60419 12.6623
H 21.7924 6.12587 13.6001
O 3.73266 14.295 11.7959
H 4.16794 15.0676 11.4355
H 2.95356 14.64 12.232
O 0.96848 12.8874 0.645499
H 0.933767 12.4515 1.49699
H 0.709647 12.2115 31.7049
O 2.52651 8.94567 4.84583
H 3.24062 8.6043 5.38411
H 2.58313 9.89587 4.94656
O 15.8434 20.2963 2.94491
H 15.1392 20.1344 3.57268
H 16.5376 19.6891 3.2011
O 8.72847 0.699744 10.9906
H 8.59323 31.4844 11.2837
H 8.83388 1.20177 11.7987
O 26.8648 17.7455 17.7142
H 27.0631 18.2414 18.5085
H 25.9432 17.9342 17.5373
O 20.7061 17.014 22.3654
H 20.6156 16.4914 21.5686
H 20.1108 17.7524 22.237
O 23.4891 3.06158 9.1799
H 22.5455 2.99155 9.03538
H 23.8182 3.51245 8.4023
O 26.22 8.09086 10.0953
H 26.8117 8.73264 9.70259
H 25.9736 7.51647 9.37032
O 12.8865 21.7547 12.8167
H 12.2094 22.4157 12.6718
H 13.4835 21.8563 12.0754
O 22.8344 27.8223 0.673218
H 22.5236 28.6903 32.1017
H 22.4836 27.6933 1.55444
O 1.63458 8.28931 18.3452
H 1.54336 8.23511 17.3939
H 2.57148 8.42233 18.4893
O 13.0568 14.4784 18.6558
H 12.3614 15.1306 18.7409
H 13.0128 13.9734 19.4677
O 7.57652 4.60518 7.23177
H 7.1918 5.30332 7.76169
H 8.45893 4.49383 7.58559
O 4.72731 15.9225 21.3896
H 4.01809 15.7661 20.7661
H 4.84462 16.8725 21.3863
O 26.1865 29.6343 29.6693
H 25.9138 28.7928 29.3036
H 26.8039 29.9859 29.0278
O 26.9734 13.9933 1.00406
H 27.0198 14.666 1.68336
H 26.1253 14.1349 0.583553
O 26.7959 8.68146 4.18382
H 26.6887 8.21226 5.01122
H 26.6103 9.5952 4.4003
O 26.395 15.4361 3.18248
H 26.7054 16.1054 3.79231
H 25.598 15.8073 2.80402
O 13.3769 3.18889 6.62292
H 13.0542 4.07128 6.80583
H 14.1507 3.09637 7.17876
O 27.2052 2.95282 14.0962
H 27.7312 3.69991 14.3815
H 27.5241 2.75738 13.215
O 20.2082 12.0325 25.4696
H 19.5608 12.158 24.7758
H 21.0428 12.2682 25.0646
O 16.729 26.2211 30.4335
H 16.0813 25.606 30.0893
H 16.4501 27.0743 30.1009
O 7.47646 4.02616 24.6351
H 6.80835 4.70796 24.5643
H 8.28678 4.45467 24.3594
O 18.3767 13.1805 23.3523
H 17.6145 12.8287 23.8124
H 18.5954 12.5113 22.7037
O 3.13271 6.84651 6.84888
H 3.78696 7.54515 6.85854
H 2.54915 7.0541 7.57868
O 31.2028 15.4996 1.59542
H 31.2888 16.2742 2.15122
H 30.9672 14.7956 2.19963
O 26.2382 26.2397 21.7075
H 26.7154 26.2214 22.5371
H 26.3621 27.1301 21.3789
O 16.9246 23.9974 14.4028
H 16.1771 23.7874 14.9625
H 17.2153 23.1511 14.0629
O 30.7515 19.1555 18.6996
H 30.2091 19.9442 18.6976
H 30.3317 18.5739 18.0658
O 14.7413 7.33784 4.18261
H 13.8739 6.94545 4.08351
H 14.8508 7.44249 5.12775
O 29.0176 4.87149 14.3034
H 28.8687 5.12347 13.3921
H 29.3027 5.6785 14.732
O 20.4811 20.0261 13.0521
H 20.5535 19.211 13.5487
H 19.7893 19.8567 12.4125
O 10.3916 23.2483 12.386
H 9.66587 23.1037 12.9931
H 10.6541 24.1563 12.5377
O 22.6325 28.5881 23.3961
H 22.0416 28.3801 24.1198
H 22.5131 27.8698 22.7748
O 28.7243 27.9252 6.9121
H 29.4739 27.8069 6.32869
H 28.7066 28.8651 7.09239
O 10.5504 1.46251 29.5473
H 10.0625 2.28163 29.4627
H 9.88836 0.777816 29.4521
O 16.9448 25.0358 19.2989
H 16.2486 25.1053 19.9522
H 16.7966 24.1883 18.8795
O 7.38414 29.6813 22.3349
H 7.22745 29.5899 21.395
H 6.55222 29.439 22.7416
O 10.6925 25.3143 19.0304
H 11.1593 25.9398 18.4763
H 10.4359 25.821 19.8009
O 6.51713 32.239 26.6897
H 7.33744 32.2182 26.1968
H 6.4681 31.3806 27.1104
O 31.6144 3.49223 5.91787
H 0.62007 4.13755 5.77026
H 32.0796 2.69792 6.18038
O 11.8818 20.6813 18.7818
H 12.8142 20.4968 18.8953
H 11.4384 19.9597 19.2278
O 7.34794 22.0291 1.67723
H 6.4583 21.7442 1.88602
H 7.60717 21.4824 0.935528
O 4.96776 31.6635 14.4666
H 4.78055 31.3887 13.569
H 5.83141 32.0733 14.4169
O 15.6086 2.74505 8.42061
H 16.3955 3.04119 7.9631
H 15.6666 3.1513 9.28539
O 30.6065 12.4036 10.7983
H 31.4549 12.1929 10.4084
H 30.5225 11.7959 11.5331
O 2.91142 3.15448 26.1214
H 3.57311 3.84024 26.2116
H 2.9881 2.63982 26.9248
O 28.2177 14.9445 17.3318
H 27.4915 14.5061 17.7754
H 28.4534 14.354 16.6163
O 17.9679 3.89085 10.2741
H 18.1438 2.96243 10.1214
H 18.029 4.29242 9.40736
O 8.98994 12.8274 13.9527
H 8.05069 12.9617 13.8264
H 9.17789 12.0054 13.4997
O 11.1234 16.1002 22.7955
H 10.8577 15.5218 23.5105
H 11.4802 16.8735 23.2324
O 29.7697 19.0772 21.4142
H 30.2404 18.9101 20.5976
H 29.8916 18.2796 21.929
O 13.1835 13.2359 21.0798
H 13.7019 13.8535 21.5956
H 12.4833 12.9584 21.6705
O 4.09053 14.2934 2.8606
H 4.5606 15.0047 3.29572
H 3.39999 14.0497 3.47704
O 16.4143 11.8197 13.7974
H 16.6416 12.2746 14.6083
H 16.3816 10.8949 14.042
O 25.8491 6.18574 8.15734
H 24.9245 6.37908 8.0022
H 26.3182 6.91338 7.74909
O 29.253 2.15587 15.7539
H 29.4439 3.08409 15.619
H 28.4165 2.01593 15.3101
O 26.7457 6.13283 18.5461
H 26.1538 5.41626 18.3171
H 26.6299 6.77329 17.8442
O 2.80551 4.80852 14.4695
H 2.97868 5.58242 13.9335
H 2.5398 4.13644 13.8419
O 1.68107 4.55082 0.789628
H 1.20786 3.82966 32.0604
H 2.13924 4.14514 1.52566
O 26.7715 6.43188 12.1839
H 27.396 5.87713 11.7164
H 26.4093 7.00653 11.5095
O 29.1016 3.90076 22.1222
H 29.7678 3.27315 21.842
H 29.5752 4.72719 22.2169
O 6.99312 23.5539 5.21741
H 7.84233 23.1287 5.33701
H 6.68614 23.7312 6.10655
O 11.5447 19.5024 23.0293
H 11.1592 20.3327 23.3091
H 11.7505 19.0463 23.8453
O 27.7502 10.2128 9.21553
H 28.6035 9.78036 9.25007
H 27.598 10.5153 10.1109
O 3.78143 28.0567 6.69725
H 3.87344 28.4989 5.85334
H 4.37981 28.5245 7.27982
O 8.89972 21.2448 30.9741
H 9.63444 21.8473 30.8584
H 8.81422 20.8053 30.1281
O 7.51925 12.6771 4.20299
H 6.73716 12.4561 4.70869
H 8.05186 13.201 4.80138
O 23.0835 19.7673 14.3663
H 22.8543 18.842 14.2794
H 22.4042 20.1304 14.9346
O 9.75527 20.4414 14.7839
H 10.4551 20.8454 15.297
H 9.17967 21.1691 14.5484
O 7.32812 16.1121 16.5004
H 7.95989 16.7944 16.2733
H 6.49468 16.5752 16.5848
O 0.79257 8.78745 27.8177
H 1.3191 9.58151 27.7257
H 32.1775 8.80293 28.7263
O 16.9471 24.6572 7.00752
H 17.1685 24.9355 6.11884
H 16.5977 25.4442 7.4255
O 29.4406 29.4321 11.6462
H 30.3867 29.2979 11.5897
H 29.3392 30.1814 12.2331
O 27.506 10.8364 11.846
H 28.1765 11.3778 12.2625
H 27.4779 10.0395 12.3756
O 13.2338 30.1506 6.55863
H 13.1428 29.4635 7.21889
H 12.3773 30.5773 6.5367
O 19.8324 4.73402 19.1614
H 19.7038 5.67947 19.2377
H 20.3062 4.62203 18.3373
O 26.2496 20.969 6.99198
H 26.0336 21.7031 7.56694
H 27.1562 21.1284 6.72946
O 23.4109 21.0294 6.54031
H 23.3604 20.2257 6.02289
H 24.3489 21.1925 6.63937
O 18.4263 9.32879 15.8748
H 19.2199 9.57812 15.4014
H 18.4411 9.8654 16.6673
O 13.3957 12.6166 1.06784
H 13.7817 12.6773 31.8798
H 14.0581 12.9899 1.64924
O 18.9632 5.49757 12.1587
H 18.6469 4.94704 11.4424
H 18.533 5.14719 12.9387
O 8.28008 26.1699 29.8942
H 8.41268 25.9911 30.8252
H 8.49881 25.3464 29.4581
O 28.1881 11.5096 1.26296
H 28.9393 11.5526 1.85465
H 27.8621 12.4087 1.22317
O 22.861 3.65961 30.1399
H 23.2678 3.65514 29.2734
H 22.5376 4.55395 30.2485
O 21.467 28.4708 26.079
H 21.7577 27.5679 25.951
H 20.8092 28.4151 26.7722
O 31.3891 3.59552 17.9213
H 30.6836 4.22875 18.0537
H 31.3971 3.07388 18.7239
O 8.85648 24.6796 7.72607
H 7.93553 24.9404 7.73511
H 9.12599 24.7187 8.64371
O 22.5784 19.4432 20.7921
H 22.7407 19.6457 19.8708
H 23.1715 18.7174 20.9864
O 17.1287 22.984 4.08769
H 17.6435 22.2322 3.7944
H 16.9232 22.7919 5.00262
O 7.34841 23.5373 10.2102
H 6.43612 23.248 10.1948
H 7.85607 22.738 10.07
O 8.8126 0.591931 25.3741
H 8.92564 1.53665 25.4788
H 8.70738 32.1516 24.4311
O 3.06901 17.7373 18.3396
H 2.19659 18.0796 18.1448
H 2.93718 16.7964 18.456
O 4.0324 7.76104 16.3981
H 4.07556 6.84579 16.675
H 3.14153 7.86926 16.0651
O 1.2664 20.8317 24.0845
H 1.82195 20.1992 23.629
H 32.2197 20.9819 23.4869
O 23.1305 24.7291 11.9713
H 23.2125 24.3242 11.1079
H 23.2542 24.0073 12.5877
O 14.2795 3.96967 23.8375
H 13.4633 4.45382 23.9628
H 14.4062 3.49602 24.6595
O 6.36486 2.37643 18.6679
H 6.49405 3.16436 19.1959
H 7.22613 2.19607 18.2912
O 20.1494 29.371 5.75772
H 20.3222 30.3068 5.86012
H 19.2688 29.2492 6.11273
O 21.6476 22.324 30.5793
H 21.9623 22.254 31.4806
H 22.4386 22.4655 30.0592
O 18.9101 8.21694 12.556
H 17.9556 8.1858 12.6201
H 19.165 7.32184 12.3323
O 24.3912 13.2896 26.3854
H 25.3093 13.5494 26.3083
H 24.4155 12.3338 26.4327
O 28.9028 5.07799 11.5867
H 29.0897 5.35009 10.6882
H 28.6297 4.16389 11.5087
O 10.8373 2.92177 14.4178
H 11.0926 3.43523 13.6514
H 10.3632 3.54005 14.9738
O 9.77638 26.2585 21.7541
H 9.67387 26.779 22.5508
H 9.07264 25.6112 21.7981
O 9.20452 16.0515 10.1684
H 8.73752 15.401 9.64407
H 9.6624 15.539 10.8346
O 23.5484 30.6539 13.0113
H 23.8108 31.2183 13.7385
H 24.3175 30.6226 12.4423
O 12.5832 31.0588 28.9275
H 12.2539 30.8647 28.0499
H 12.2054 31.9116 29.1423
O 11.6956 4.73135 18.3587
H 11.3277 3.94797 18.7676
H 11.0527 5.41833 18.5345
O 26.593 3.95804 30.8485
H 26.744 4.32031 29.9755
H 26.3655 3.04155 30.692
O 9.2096 10.3072 12.3993
H 8.66729 9.80417 13.0068
H 8.91491 10.0328 11.5309
O 29.0288 20.2076 8.67165
H 29.8757 20.4557 8.3009
H 28.7246 19.49 8.11604
O 5.73853 15.8897 10.3399
H 6.4661 15.2694 10.3859
H 6.11718 16.7246 10.6152
O 28.8198 8.27895 27.799
H 29.3117 9.03749 27.4846
H 28.0913 8.65375 28.294
O 23.1865 2.46908 11.8876
H 22.3931 1.95493 12.0374
H 23.2637 2.51909 10.9349
O 27.3957 25.2288 10.5457
H 28.0459 25.0697 9.86152
H 27.9092 25.5018 11.306
O 9.39714 10.4418 22.2302
H 8.64568 11.0346 22.2443
H 10.1585 11.0179 22.2993
O 18.9535 26.8403 22.7368
H 18.1025 27.271 22.6565
H 19.3621 26.9543 21.8787
O 29.8236 24.6268 26.1868
H 29.1133 25.1424 26.5688
H 29.7602 24.7911 25.2459
O 12.3279 9.42566 23.6165
H 12.6127 10.3383 23.5699
H 11.4986 9.45711 24.0935
O 21.8037 13.0574 9.02941
H 21.3525 13.2991 8.22054
H 22.6367 12.6867 8.73804
O 32.1118 2.10081 20.0018
H 1.37001 2.07437 19.8451
H 32.0289 2.22286 20.9476
O 14.8871 16.7843 5.81289
H 14.1032 17.1454 6.22688
H 14.663 16.7266 4.88408
O 14.1346 19.5921 21.8742
H 13.3183 19.7959 22.3306
H 13.8884 18.9332 21.2249
O 1.99695 15.7873 6.0061
H 2.77755 16.2291 5.67189
H 1.5568 16.4488 6.53988
O 24.6262 31.9891 7.49365
H 24.597 1.2104 7.18918
H 23.9481 31.9402 8.16739
O 8.75032 28.989 7.30108
H 7.93738 29.3515 7.65313
H 9.4164 29.6428 7.51333
O 5.0882 29.8426 23.6388
H 4.37147 29.7086 23.0186
H 5.06402 30.7792 23.8347
O 31.6223 15.593 18.7151
H 30.9572 15.8199 19.365
H 31.5138 14.6518 18.5791
O 14.7606 28.2673 2.69342
H 14.6487 27.5022 3.25765
H 14.4002 28.9945 3.20091
O 24.696 4.1864 25.4297
H 25.5469 4.45527 25.0833
H 24.1245 4.93791 25.2722
O 21.5175 11.3953 31.2731
H 21.8017 11.976 31.9789
H 21.2077 11.9858 30.5864
O 7.85514 20.3641 25.9288
H 8.34849 20.7346 25.197
H 6.99665 20.7843 25.8767
O 29.9409 15.0677 27.3235
H 30.4246 15.6468 26.7344
H 29.1271 15.5372 27.5067
O 28.1307 13.9973 21.3632
H 27.8344 14.6531 21.9944
H 28.7169 13.4299 21.8638
O 19.8122 29.8661 19.6746
H 19.6256 30.2092 20.5484
H 19.2773 30.4005 19.0876
O 13.1207 17.2493 20.4819
H 12.6183 16.4678 20.7119
H 13.9408 16.9104 20.1231
O 25.9691 2.19613 20.0203
H 26.0189 2.99414 20.5466
H 25.9405 1.48671 20.6623
O 13.2121 30.475 10.9209
H 13.9109 31.1249 10.8466
H 13.3719 29.8671 10.1989
O 10.9833 12.6465 22.7935
H 11.7837 12.6076 23.317
H 10.6056 13.5025 22.9958
O 24.7182 17.0147 26.3418
H 24.7543 16.5583 25.5012
H 25.5891 16.8912 26.7195
O 11.3238 17.5526 15.737
H 10.4652 17.9645 15.8343
H 11.2186 16.684 16.1251
O 26.0517 1.4674 9.8505
H 25.3049 2.06232 9.91824
H 25.9317 1.0265 9.00939
O 11.441 30.6251 0.973109
H 10.5892 30.4133 0.591225
H 11.6187 31.5195 0.682256
O 30.3649 24.419 15.4056
H 30.8678 25.0769 15.8857
H 30.2437 24.7978 14.5349
O 7.08426 25.9443 25.5336
H 7.98835 25.6636 25.6752
H 6.55643 25.181 25.7679
O 2.07111 10.9452 18.8376
H 1.77287 10.0864 18.5379
H 2.68746 11.2335 18.1644
O 3.40565 2.92533 2.19413
H 3.39119 2.39657 2.9919
H 3.32099 2.28977 1.48341
O 27.0157 4.96786 24.2672
H 27.6639 5.67176 24.2921
H 26.6748 4.98697 23.373
O 14.8704 7.34834 10.9322
H 14.0666 7.0392 10.5144
H 14.6328 7.46641 11.8519
O 12.4763 18.8047 2.01843
H 11.5573 18.9695 1.80727
H 12.5415 18.9779 2.95756
O 6.42942 26.6322 1.90042
H 5.83536 26.4596 2.63084
H 6.57436 25.7745 1.50108
O 23.3926 26.0267 17.9415
H 22.7425 26.7274 17.8892
H 24.1839 26.4044 17.5575
O 23.6971 16.6428 7.56811
H 23.4456 16.278 8.41659
H 22.9472 16.4671 6.99966
O 29.4294 21.5827 29.636
H 29.4813 20.9492 30.3517
H 29.174 22.4024 30.0592
O 19.6411 16.3095 9.83071
H 19.878 17.2045 10.0738
H 19.5139 16.344 8.88262
O 0.844526 7.35692 20.9947
H 0.637456 8.05321 21.618
H 1.68326 7.61728 20.614
O 22.1895 27.9878 14.5779
H 22.0522 27.0519 14.7246
H 22.8362 28.0279 13.8734
O 3.07543 12.3417 16.7544
H 3.69783 12.9941 17.0757
H 3.61445 11.7094 16.2791
O 5.45597 24.0765 29.2131
H 4.98361 23.244 29.2156
H 4.86578 24.6887 29.6526
O 3.48308 11.6769 30.896
H 3.75242 12.5927 30.8254
H 3.02949 11.4959 30.0728
O 20.7885 0.801858 11.4345
H 20.6584 31.7318 12.0073
H 21.4952 32.2235 10.8454
O 17.5928 20.6049 16.8329
H 18.0741 20.8881 16.0555
H 16.9371 21.2884 16.9715
O 19.8939 31.9329 2.77307
H 20.6933 32.0611 3.28376
H 19.8979 31.0019 2.55065
O 18.9758 15.439 30.4548
H 18.436 15.7532 31.1801
H 19.8735 15.4932 30.7827
O 17.016 15.4125 21.5345
H 16.3515 14.9962 22.0834
H 16.5435 16.1002 21.0655
O 1.36908 23.0353 29.1765
H 1.82975 22.2039 29.0633
H 1.77376 23.6227 28.5382
O 6.75085 24.9245 12.6605
H 7.18576 24.7428 11.8273
H 7.15081 24.3127 13.2784
O 2.49224 27.5328 25.2984
H 3.29185 27.0845 25.5738
H 2.43202 28.2931 25.8767
O 3.26656 7.7609 28.5125
H 3.90615 8.4549 28.3527
H 2.41756 8.1799 28.3715
O 28.3841 5.6396 28.9005
H 29.1768 5.21272 28.5753
H 28.3387 6.46322 28.4149
O 24.363 18.3943 16.4799