LAMMPS (22 Aug 2018)
Reading data file ...
  orthogonal box = (0 0 0) to (32.8974 32.8974 32.8974)
  4 by 4 by 8 MPI processor grid
  reading atoms ...
  3072 atoms
  scanning bonds ...
  2 = max bonds/atom
  scanning angles ...
  1 = max angles/atom
  reading bonds ...
  2000 bonds
  reading angles ...
  1000 angles
Finding 1-2 1-3 1-4 neighbors ...
  special bond factors lj:   0          0          0         
  special bond factors coul: 0          0          0         
  2 = max # of 1-2 neighbors
  1 = max # of 1-3 neighbors
  1 = max # of 1-4 neighbors
  2 = max # of special neighbors
Setting atom values ...
  1000 settings made for charge
Setting atom values ...
  2000 settings made for charge
Setting atom values ...
  36 settings made for charge
Setting atom values ...
  36 settings made for charge
1000 atoms in group wat
36 atoms in group K
36 atoms in group Cl
PPPM initialization ...
  extracting TIP4P info from pair style
  using 12-bit tables for long-range coulomb (../kspace.cpp:321)
  G vector (1/distance) = 0.308492
  grid = 30 30 30
  stencil order = 5
  estimated absolute RMS force accuracy = 0.00396779
  estimated relative force accuracy = 1.19489e-05
  using double precision FFTs
  3d grid and FFT values/proc = 2475 256
Neighbor list info ...
  update every 1 steps, delay 0 steps, check yes
  max neighbors/atom: 2000, page size: 100000
  master list distance cutoff = 12.3092
  ghost atom cutoff = 12.3092
  binsize = 6.1546, bins = 6 6 6
  1 neighbor lists, perpetual/occasional/extra = 1 0 0
  (1) pair lj/cut/tip4p/long, perpetual
      attributes: half, newton on
      pair build: half/bin/newton
      stencil: half/bin/3d/newton
      bin: standard
Setting up cg style minimization ...
  Unit style    : real
  Current step  : 0
Per MPI rank memory allocation (min/avg/max) = 8.191 | 8.258 | 8.457 Mbytes
Step Temp E_pair E_mol TotEng Press 
       0            0   -533.24652 3.2833764e-05   -533.24649    18749.729 
    1000            0   -17665.195    375.59183   -17289.603   -4566.8555 
Loop time of 1.52589 on 128 procs for 1000 steps with 3072 atoms

98.7% CPU use with 128 MPI tasks x no OpenMP threads

Minimization stats:
  Stopping criterion = max iterations
  Energy initial, next-to-last, final = 
        -533.246487313     -17289.2230974     -17289.6031842
  Force two-norm initial, final = 1265.98 42.907
  Force max component initial, final = 165.576 8.87677
  Final line search alpha, max atom move = 0.00715157 0.0634828
  Iterations, force evaluations = 1000 1788

MPI task timing breakdown:
Section |  min time  |  avg time  |  max time  |%varavg| %total
---------------------------------------------------------------
Pair    | 0.19498    | 0.36053    | 0.55988    |  12.1 | 23.63
Bond    | 0.0011464  | 0.0016404  | 0.0022507  |   0.5 |  0.11
Kspace  | 0.68489    | 0.89077    | 1.0627     |   7.7 | 58.38
Neigh   | 0.010214   | 0.010357   | 0.010501   |   0.1 |  0.68
Comm    | 0.16096    | 0.18185    | 0.21282    |   2.6 | 11.92
Output  | 8.8275e-05 | 8.9992e-05 | 9.2644e-05 |   0.0 |  0.01
Modify  | 0          | 0          | 0          |   0.0 |  0.00
Other   |            | 0.08066    |            |       |  5.29

Nlocal:    24 ave 36 max 12 min
Histogram: 3 3 16 16 20 30 20 15 4 1
Nghost:    2651.09 ave 2706 max 2611 min
Histogram: 22 12 19 24 3 1 16 14 11 6
Neighs:    8116.65 ave 14013 max 3703 min
Histogram: 4 10 14 29 25 25 11 8 1 1

Total # of neighbors = 1038931
Ave neighs/atom = 338.194
Ave special neighs/atom = 1.95312
Neighbor list builds = 20
Dangerous builds = 0
Finding SHAKE clusters ...
  0 = # of size 2 clusters
  0 = # of size 3 clusters
  0 = # of size 4 clusters
  1000 = # of frozen angles
PPPM initialization ...
  extracting TIP4P info from pair style
  using 12-bit tables for long-range coulomb (../kspace.cpp:321)
  G vector (1/distance) = 0.308492
  grid = 30 30 30
  stencil order = 5
  estimated absolute RMS force accuracy = 0.00396779
  estimated relative force accuracy = 1.19489e-05
  using double precision FFTs
  3d grid and FFT values/proc = 2475 256
Setting up Verlet run ...
  Unit style    : real
  Current step  : 0
  Time step     : 0.001
Per MPI rank memory allocation (min/avg/max) = 7.941 | 8.096 | 8.208 Mbytes
Step Temp E_pair E_mol TotEng Press Volume 
       0    441.89184   -17665.195            0   -14937.283   -1793218.4    35602.788 
   10000    173.37273   -16060.017            0   -14989.743    1923.3183    35476.086 
Loop time of 9.45432 on 128 procs for 10000 steps with 3072 atoms

Performance: 0.091 ns/day, 262.620 hours/ns, 1057.718 timesteps/s
99.4% CPU use with 128 MPI tasks x no OpenMP threads

MPI task timing breakdown:
Section |  min time  |  avg time  |  max time  |%varavg| %total
---------------------------------------------------------------
Pair    | 1.1131     | 2.3584     | 4.0708     |  36.5 | 24.95
Bond    | 0.00093919 | 0.0011131  | 0.00196    |   0.5 |  0.01
Kspace  | 3.132      | 4.8696     | 6.0952     |  25.1 | 51.51
Neigh   | 0          | 0          | 0          |   0.0 |  0.00
Comm    | 0.83507    | 0.97204    | 1.1322     |   7.2 | 10.28
Output  | 8.1202e-05 | 8.3024e-05 | 8.509e-05  |   0.0 |  0.00
Modify  | 0.92102    | 1.1222     | 1.2072     |   6.3 | 11.87
Other   |            | 0.1308     |            |       |  1.38

Nlocal:    24 ave 36 max 12 min
Histogram: 4 3 13 17 18 34 17 17 4 1
Nghost:    2652.02 ave 2706 max 2613 min
Histogram: 18 14 15 31 2 1 19 12 10 6
Neighs:    8116.63 ave 13979 max 3878 min
Histogram: 6 8 20 20 28 26 11 7 1 1

Total # of neighbors = 1038929
Ave neighs/atom = 338.193
Ave special neighs/atom = 1.95312
Neighbor list builds = 0
Dangerous builds = 0
PPPM initialization ...
  extracting TIP4P info from pair style
  using 12-bit tables for long-range coulomb (../kspace.cpp:321)
  G vector (1/distance) = 0.308578
  grid = 30 30 30
  stencil order = 5
  estimated absolute RMS force accuracy = 0.00395374
  estimated relative force accuracy = 1.19066e-05
  using double precision FFTs
  3d grid and FFT values/proc = 2475 256
Setting up Verlet run ...
  Unit style    : real
  Current step  : 10000
  Time step     : 0.01
Per MPI rank memory allocation (min/avg/max) = 7.941 | 8.1 | 8.208 Mbytes
Step Temp E_pair E_mol TotEng Press Volume 
   10000    173.37273   -16060.017            0   -14989.743   -16892.434    35476.086 
   20000    298.56799   -14875.693            0   -13032.556   -1053.7621    36266.052 
Loop time of 9.22823 on 128 procs for 10000 steps with 3072 atoms

Performance: 0.936 ns/day, 25.634 hours/ns, 1083.631 timesteps/s
99.4% CPU use with 128 MPI tasks x no OpenMP threads

MPI task timing breakdown:
Section |  min time  |  avg time  |  max time  |%varavg| %total
---------------------------------------------------------------
Pair    | 1.0776     | 2.3206     | 3.733      |  35.8 | 25.15
Bond    | 0.00096395 | 0.0011134  | 0.0018678  |   0.4 |  0.01
Kspace  | 3.2085     | 4.6562     | 5.8991     |  25.1 | 50.46
Neigh   | 0.0011637  | 0.0012981  | 0.0013852  |   0.2 |  0.01
Comm    | 0.85434    | 0.97729    | 1.1129     |   6.1 | 10.59
Output  | 7.8678e-05 | 8.0062e-05 | 8.2825e-05 |   0.0 |  0.00
Modify  | 0.95093    | 1.1371     | 1.2179     |   6.0 | 12.32
Other   |            | 0.1346     |            |       |  1.46

Nlocal:    24 ave 34 max 10 min
Histogram: 2 0 10 10 13 26 24 29 10 4
Nghost:    2607.94 ave 2671 max 2563 min
Histogram: 14 21 21 14 5 21 12 4 9 7
Neighs:    7955.3 ave 11783 max 3458 min
Histogram: 3 5 14 8 27 18 26 8 13 6

Total # of neighbors = 1018278
Ave neighs/atom = 331.471
Ave special neighs/atom = 1.95312
Neighbor list builds = 4
Dangerous builds = 0
PPPM initialization ...
  extracting TIP4P info from pair style
  using 12-bit tables for long-range coulomb (../kspace.cpp:321)
  G vector (1/distance) = 0.312684
  grid = 32 32 32
  stencil order = 5
  estimated absolute RMS force accuracy = 0.00302764
  estimated relative force accuracy = 9.11765e-06
  using double precision FFTs
  3d grid and FFT values/proc = 2475 256
Setting up Verlet run ...
  Unit style    : real
  Current step  : 20000
  Time step     : 0.1
Per MPI rank memory allocation (min/avg/max) = 7.946 | 8.111 | 8.208 Mbytes
Step Temp E_pair E_mol TotEng Press Volume 
   20000    298.56799   -14875.688            0   -13032.551    -17791.88    36266.052 
   30000    299.43844    -14855.82            0   -13007.309    172.19062    32702.115 
Loop time of 9.30462 on 128 procs for 10000 steps with 3072 atoms

Performance: 9.286 ns/day, 2.585 hours/ns, 1074.735 timesteps/s
99.4% CPU use with 128 MPI tasks x no OpenMP threads

MPI task timing breakdown:
Section |  min time  |  avg time  |  max time  |%varavg| %total
---------------------------------------------------------------
Pair    | 1.3227     | 2.5628     | 3.6132     |  26.9 | 27.54
Bond    | 0.00095372 | 0.0011255  | 0.0020143  |   0.5 |  0.01
Kspace  | 3.3085     | 4.3831     | 5.615      |  20.4 | 47.11
Neigh   | 0.014714   | 0.014939   | 0.015287   |   0.1 |  0.16
Comm    | 0.92995    | 1.0309     | 1.145      |   4.8 | 11.08
Output  | 8.6803e-05 | 8.9472e-05 | 9.2213e-05 |   0.0 |  0.00
Modify  | 1.1102     | 1.1923     | 1.2451     |   2.8 | 12.81
Other   |            | 0.1194     |            |       |  1.28

Nlocal:    24 ave 32 max 12 min
Histogram: 1 0 3 7 23 32 18 19 12 13
Nghost:    2835.08 ave 2869 max 2799 min
Histogram: 2 8 11 19 17 21 23 16 8 3
Neighs:    8800.06 ave 12739 max 4613 min
Histogram: 1 4 14 20 27 14 27 13 4 4

Total # of neighbors = 1126408
Ave neighs/atom = 366.669
Ave special neighs/atom = 1.95312
Neighbor list builds = 48
Dangerous builds = 0
PPPM initialization ...
  extracting TIP4P info from pair style
  using 12-bit tables for long-range coulomb (../kspace.cpp:321)
  G vector (1/distance) = 0.310542
  grid = 30 30 30
  stencil order = 5
  estimated absolute RMS force accuracy = 0.0036464
  estimated relative force accuracy = 1.0981e-05
  using double precision FFTs
  3d grid and FFT values/proc = 2475 256
Setting up Verlet run ...
  Unit style    : real
  Current step  : 30000
  Time step     : 0.2
Per MPI rank memory allocation (min/avg/max) = 7.95 | 8.172 | 8.218 Mbytes
Step Temp E_pair E_mol TotEng Press Volume 
   30000    299.43844    -14855.83            0   -13007.319    2384.2351    32702.115 
   40000    291.05676   -14997.874            0   -13201.106   -239.23484    32065.838 
Loop time of 9.91474 on 128 procs for 10000 steps with 3072 atoms

Performance: 17.429 ns/day, 1.377 hours/ns, 1008.599 timesteps/s
99.4% CPU use with 128 MPI tasks x no OpenMP threads

MPI task timing breakdown:
Section |  min time  |  avg time  |  max time  |%varavg| %total
---------------------------------------------------------------
Pair    | 1.9567     | 2.6995     | 3.5589     |  20.6 | 27.23
Bond    | 0.00093824 | 0.0011478  | 0.0019721  |   0.5 |  0.01
Kspace  | 3.8196     | 4.6678     | 5.3873     |  15.5 | 47.08
Neigh   | 0.03146    | 0.032069   | 0.032627   |   0.2 |  0.32
Comm    | 0.99422    | 1.1011     | 1.2267     |   5.0 | 11.11
Output  | 0.00011467 | 0.00012069 | 0.00012439 |   0.0 |  0.00
Modify  | 1.0554     | 1.2582     | 1.3433     |   6.1 | 12.69
Other   |            | 0.1549     |            |       |  1.56

Nlocal:    24 ave 31 max 17 min
Histogram: 6 6 14 16 12 35 9 21 5 4
Nghost:    2874.66 ave 2921 max 2835 min
Histogram: 1 8 12 23 34 25 15 6 3 1
Neighs:    8923.72 ave 13524 max 5689 min
Histogram: 5 14 18 20 27 22 13 8 0 1

Total # of neighbors = 1142236
Ave neighs/atom = 371.822
Ave special neighs/atom = 1.95312
Neighbor list builds = 98
Dangerous builds = 0
PPPM initialization ...
  extracting TIP4P info from pair style
  using 12-bit tables for long-range coulomb (../kspace.cpp:321)
  G vector (1/distance) = 0.311013
  grid = 30 30 30
  stencil order = 5
  estimated absolute RMS force accuracy = 0.00357597
  estimated relative force accuracy = 1.07689e-05
  using double precision FFTs
  3d grid and FFT values/proc = 2475 256
Setting up Verlet run ...
  Unit style    : real
  Current step  : 40000
  Time step     : 0.5
Per MPI rank memory allocation (min/avg/max) = 7.95 | 8.199 | 8.218 Mbytes
Step Temp E_pair E_mol TotEng Press Volume 
   40000    291.05676   -14997.874            0   -13201.105   -3505.6429    32065.838 
   50000    297.53784    -15065.46            0   -13228.683   -1249.1742    32177.798 
Loop time of 9.70977 on 128 procs for 10000 steps with 3072 atoms

Performance: 44.491 ns/day, 0.539 hours/ns, 1029.890 timesteps/s
99.4% CPU use with 128 MPI tasks x no OpenMP threads

MPI task timing breakdown:
Section |  min time  |  avg time  |  max time  |%varavg| %total
---------------------------------------------------------------
Pair    | 1.9864     | 2.7483     | 3.5238     |  19.6 | 28.30
Bond    | 0.00096194 | 0.0011353  | 0.0020793  |   0.5 |  0.01
Kspace  | 3.6488     | 4.4135     | 5.1443     |  15.3 | 45.45
Neigh   | 0.075162   | 0.076903   | 0.078526   |   0.4 |  0.79
Comm    | 0.99132    | 1.1117     | 1.2431     |   5.5 | 11.45
Output  | 7.981e-05  | 8.1204e-05 | 9.2974e-05 |   0.0 |  0.00
Modify  | 0.9848     | 1.1926     | 1.2881     |   6.4 | 12.28
Other   |            | 0.1655     |            |       |  1.70

Nlocal:    24 ave 33 max 15 min
Histogram: 2 6 9 23 13 36 22 10 5 2
Nghost:    2892.38 ave 2915 max 2860 min
Histogram: 2 1 8 12 20 15 28 23 14 5
Neighs:    9001.98 ave 13201 max 5693 min
Histogram: 9 8 13 20 27 27 9 9 5 1

Total # of neighbors = 1152253
Ave neighs/atom = 375.082
Ave special neighs/atom = 1.95312
Neighbor list builds = 241
Dangerous builds = 0
PPPM initialization ...
  extracting TIP4P info from pair style
  using 12-bit tables for long-range coulomb (../kspace.cpp:321)
  G vector (1/distance) = 0.31093
  grid = 30 30 30
  stencil order = 5
  estimated absolute RMS force accuracy = 0.00358836
  estimated relative force accuracy = 1.08062e-05
  using double precision FFTs
  3d grid and FFT values/proc = 2475 256
Setting up Verlet run ...
  Unit style    : real
  Current step  : 0
  Time step     : 2
Per MPI rank memory allocation (min/avg/max) = 8.2 | 8.211 | 8.218 Mbytes
Step Temp E_pair E_mol TotEng Press Volume 
       0    297.53784    -15065.46            0   -13228.683   -1727.0751    32177.798 
   10000    298.35836   -15069.849            0   -13228.006   -188.40451    31985.207 
   20000    291.80821   -15038.658            0   -13237.251    439.10682    31282.415 
   30000    296.92593    -15069.74            0    -13236.74    97.373789    31706.299 
   40000    292.56308   -15044.403            0   -13238.336    854.44148    31704.643 
   50000    298.41552   -15045.512            0   -13203.316    536.97855    31572.197 
   60000    292.36568   -15021.004            0   -13216.156    857.63748    31599.667 
   70000    302.08876   -15019.348            0   -13154.476    88.535612    31844.318 
   80000    302.94732   -15072.008            0   -13201.836    202.37551    32101.445 
   90000    307.58954   -15096.602            0   -13197.773   -319.43304    32090.814 
  100000    297.14993   -15023.256            0   -13188.873    71.635832    31524.149 
  110000    285.69836   -15049.874            0   -13286.184    97.629864    31814.536 
  120000    295.55249   -15001.719            0   -13177.197    183.88286    32001.059 
  130000    295.64294   -15058.498            0   -13233.418   -418.05835    32064.228 
  140000     294.8605   -15033.816            0   -13213.567   -406.88279    32267.038 
  150000    302.75819   -15001.958            0   -13132.954    263.09872    31853.087 
  160000    301.87923   -14945.814            0   -13082.235   -30.282698    31812.925 
  170000     296.4913   -15068.585            0   -13238.268    324.33905    31854.182 
  180000    293.18108   -15019.792            0   -13209.909   -132.63092    31593.598 
  190000    292.92539   -15054.041            0   -13245.737   -52.480049    32100.546 
  200000    294.51292   -15033.178            0   -13215.074    203.44181    31945.622 
  210000     295.6383   -15034.496            0   -13209.444    660.00006    31932.718 
  220000    299.07683   -15070.171            0   -13223.893    126.27664    31933.959 
  230000    304.01507   -15020.369            0   -13143.606    52.113971    31704.502 
  240000    297.30213   -14985.702            0   -13150.379    195.57297    32127.011 
  250000    292.94569   -15112.351            0   -13303.921   -307.39629    32089.461 
  260000     299.8905   -15030.743            0   -13179.441    388.40822    31474.797 
  270000     297.8496   -14992.817            0   -13154.115   -525.08152    31966.673 
  280000     292.3804   -15069.438            0   -13264.498   -511.75498    31739.436 
  290000    289.54678   -14990.431            0   -13202.984   -896.35595    32104.559 
  300000    303.84983   -15023.942            0   -13148.198    430.71137    31764.607 
  310000    291.56569   -14984.651            0    -13184.74    123.71059    31527.161 
  320000    296.89245   -14993.445            0   -13160.651    594.27324    31917.279 
  330000    297.24032   -14994.723            0   -13159.782    578.12422    31682.537 
  340000    304.89704    -15025.28            0   -13143.072    67.063267    31697.561 
  350000    293.89828   -14998.633            0   -13184.324   -362.12582    32032.356 
  360000    290.65579    -15045.99            0   -13251.697    96.373133    31307.822 
  370000     298.2492   -15029.965            0   -13188.796    526.68856      31711.6 
  380000    291.18635   -15014.358            0    -13216.79    218.53397     31603.89 
  390000    294.10184   -14970.827            0    -13155.26   -612.59883    31853.695 
  400000    296.57682   -15077.004            0   -13246.159   -44.085816    31580.558 
  410000    302.83524   -15080.399            0   -13210.919    432.56425    31551.849 
  420000     291.6488   -14995.033            0   -13194.609   -90.793205    31748.553 
  430000    295.53269    -15006.73            0   -13182.331    724.63485     31610.69 
  440000    298.50784   -14983.271            0   -13140.505   -173.75393    32064.245 
  450000    295.41979   -15050.211            0   -13226.509    -282.9139    32167.128 
  460000    303.51329   -15091.164            0   -13217.498    20.846802    31462.488 
  470000    292.36217   -14994.284            0   -13189.457    789.03568    31733.932 
  480000    297.93102   -14928.042            0   -13088.837    113.78609    32194.206 
  490000     306.1616   -15047.038            0   -13157.023    433.04946    31343.719 
  500000    297.00727   -14971.314            0   -13137.812   -466.93625    31937.851 
  510000    299.82629   -15110.426            0   -13259.521    92.671372    31646.594 
  520000     300.3257   -15035.358            0   -13181.371   -580.66015    31840.125 
  530000    301.49967   -15056.286            0   -13195.051    266.49365    31918.382 
  540000    295.61869   -15030.798            0   -13205.867   -42.923055    31793.263 
  550000     299.5093   -15060.478            0    -13211.53   -125.61565    31966.076 
  560000    299.32168   -15013.016            0   -13165.226    -74.24663    31887.408 
  570000     285.9769   -15072.215            0   -13306.806    335.64386    31674.899 
  580000    300.91203   -14955.085            0   -13097.478    -468.3263    32038.224 
  590000    290.63984    -15036.44            0   -13242.246    54.566919    32218.203 
  600000    296.50562   -15094.235            0   -13263.829    284.40656    31389.817 
  610000    298.08541   -15160.284            0   -13320.126    471.87613    31610.391 
  620000    300.25735   -15046.929            0   -13193.363    286.11554    31732.335 
  630000    303.85296   -14938.508            0   -13062.745    35.412268    31659.265 
  640000    301.04138   -15038.065            0   -13179.659   -117.54146     32010.28 
  650000     299.9017   -14971.378            0   -13120.007     31.67071    31891.389 
  660000    298.33185   -14945.815            0   -13104.135   -460.68324    31495.294 
  670000      295.935   -15115.618            0   -13288.735   -758.15988    31828.315 
  680000     295.7098   -15039.342            0   -13213.849    285.18306    31976.117 
  690000    293.75393   -15075.403            0   -13261.984    474.50354    31657.881 
  700000    306.05528   -15058.752            0   -13169.394   -295.10686    31911.907 
  710000    299.55992   -14947.961            0   -13098.701   -11.969736    31606.528 
  720000    298.84702   -15080.399            0   -13235.539    141.31703    31734.932 
  730000    303.73723   -15101.861            0   -13226.813     787.7537    31884.247 
  740000    299.79733   -14927.898            0   -13077.172    454.39035    31985.413 
  750000    295.11458   -15029.354            0   -13207.536    365.92161    31336.407 
  760000    295.27511   -14954.428            0   -13131.619    209.00513    31505.438 
  770000    304.11146   -15038.319            0   -13160.961   -129.95029    31547.146 
  780000    299.43863    -15136.82            0   -13288.308      374.623    31505.646 
  790000    296.59878   -15066.065            0   -13235.084     251.4992    31834.472 
  800000    294.54176   -15124.093            0    -13305.81    845.80987    31577.277 
  810000    296.36251   -15086.108            0   -13256.586    461.85499    31978.913 
  820000    309.48422   -14931.123            0   -13020.598    354.70385    31693.547 
  830000    299.75768    -15020.77            0   -13170.289    142.82177    31898.884 
  840000     296.2324   -15017.493            0   -13188.774   -18.552973    31779.444 
  850000    302.51083   -15036.213            0   -13168.735    90.858711    31386.327 
  860000    303.79928   -15056.491            0   -13181.059    5.2380058    31911.043 
  870000    300.47588   -15098.142            0   -13243.227    91.536561    31931.702 
  880000    291.12731   -15019.667            0   -13222.464    109.38753    31792.133 
  890000    294.01934   -15131.146            0   -13316.089   -595.77219    31953.153 
  900000    295.37001   -15064.435            0    -13241.04    -800.7552    31838.379 
  910000    295.87656   -15149.696            0   -13323.174   -56.271574    31486.569 
  920000    282.25946   -15032.652            0   -13290.192   -265.37932    31859.528 
  930000    290.79669   -14998.285            0   -13203.122    646.72276    31645.487 
  940000    289.02474   -15022.725            0   -13238.501    88.744342    32011.797 
  950000    310.75642   -15017.975            0   -13099.595   -763.19764    31553.447 
  960000    302.53988   -15057.162            0   -13189.506    832.46967    31727.451 
  970000     292.0128   -15094.251            0   -13291.581   -350.60718    32002.716 
  980000    290.95474   -15042.731            0   -13246.592    -620.2022     32052.68 
  990000    294.94547   -14964.641            0   -13143.866   -155.43696    32035.032 
 1000000    298.02341   -15067.237            0   -13227.462    -463.2185    31941.083 
 1010000    285.86392    -14968.93            0   -13204.218   -734.53884    32119.683 
 1020000    304.82754   -15096.788            0   -13215.009   -121.16734    31764.112 
 1030000    296.76184   -15085.121            0   -13253.133   -138.71875    31770.864 
 1040000    304.29565   -15008.875            0   -13130.379   -220.50261    32044.418 
 1050000    301.17501   -14958.413            0   -13099.182   -657.86612    31819.175 
 1060000    297.87047   -15039.662            0   -13200.831   -331.65948    31868.524 
 1070000    293.39367   -15042.585            0    -13231.39    877.11671    31698.798 
 1080000    301.95483   -15149.735            0    -13285.69   -520.12755     32425.86 
 1090000    305.37004   -15109.098            0    -13223.97    215.88844    31428.814 
 1100000    297.57691    -15010.37            0   -13173.351   -294.94639     31828.53 
 1110000    282.24213   -15056.904            0   -13314.551    353.67832    31832.031 
 1120000    286.20173   -15070.969            0   -13304.172    355.07697    31459.808 
 1130000    301.78047   -14966.607            0   -13103.638    315.09754    31906.199 
 1140000    297.06561   -15111.787            0   -13277.925   -155.26586    31900.312 
 1150000    309.28076   -15098.836            0   -13189.567    741.93232     31992.68 
 1160000     294.0782   -15052.942            0   -13237.522    696.90012    31849.999 
 1170000    296.63797   -15011.134            0   -13179.912   -971.19375     32137.69 
 1180000    295.15401   -15020.779            0   -13198.718    98.163678    31838.555 
 1190000    290.14366   -15022.806            0   -13231.675   -206.26214    31882.046 
 1200000    293.75712   -15090.195            0   -13276.756    322.10871     31525.81 
 1210000    300.89249    -15059.89            0   -13202.404    -420.6661    32117.511 
 1220000    300.65373   -15133.414            0   -13277.401    344.36501    31593.038 
 1230000    294.11536    -15049.48            0    -13233.83    7.6945144    31559.341 
 1240000    299.29365   -14992.845            0   -13145.228   -275.67354    31856.105 
 1250000     302.1531   -15069.266            0   -13203.997   -44.563008     31160.35 
 1260000    302.50007   -15020.828            0   -13153.418   -24.950803    31546.222 
 1270000    297.07592   -15063.821            0   -13229.895   -15.633769    31892.054 
 1280000    297.87825   -14988.447            0   -13149.568    154.09554    31840.619 
 1290000    293.03182   -15106.062            0   -13297.101   -661.44352    31352.832 
 1300000     292.8129    -14951.15            0   -13143.541    341.69582    32258.728 
 1310000     301.2676   -15023.325            0   -13163.522   -168.82502    31280.796 
 1320000    298.26964   -15062.841            0   -13221.546   -323.41594      32030.2 
 1330000    306.19576   -15019.614            0   -13129.389    735.73651     31750.04 
 1340000    295.13896   -15072.997            0   -13251.028     979.2891     31672.61 
 1350000    293.10976   -15044.493            0   -13235.051    536.28305    32225.659 
 1360000    299.90583   -15102.422            0   -13251.026    111.07209    31836.729 
 1370000    305.92124   -15060.611            0    -13172.08    215.14817    31660.123 
 1380000    305.78089   -14997.791            0   -13110.127   -673.11113    31656.648 
 1390000    293.25399   -15098.008            0   -13287.676    -504.6554    31668.609 
 1400000    302.01029   -14965.881            0   -13101.494   -210.37574    31960.036 
 1410000    309.28129   -15007.763            0    -13098.49     535.5674    32039.777 
 1420000    303.14117   -15047.531            0   -13176.163   -203.31045     31650.42 
 1430000    299.61755   -15038.873            0   -13189.256   -12.407771    31549.231 
 1440000    293.73233   -15051.398            0   -13238.112   -779.77834    31599.132 
 1450000    301.89395   -15014.115            0   -13150.445     402.8111    31728.277 
 1460000    289.62634   -15057.418            0    -13269.48    696.98276    31450.456 
 1470000    300.58149   -15071.259            0   -13215.692   -396.93045    31847.102 
 1480000    299.40035   -14985.684            0   -13137.408   -597.31749    31922.761 
 1490000    298.36019   -15073.193            0   -13231.339    589.87787    31430.018 
 1500000    287.83333   -15020.007            0   -13243.138    366.22901    31791.952 
 1510000    305.48363   -15075.852            0   -13190.023    825.73488    31311.454 
 1520000    297.00781   -14869.554            0   -13036.048   -526.63296    32059.823 
 1530000    299.04188    -15101.18            0   -13255.117   -808.67347    32031.675 
 1540000     297.1554   -15088.149            0   -13253.732   -535.99133     31846.27 
 1550000    300.84698   -14969.165            0   -13111.959    328.76842    31743.222 
 1560000    303.17667   -14968.463            0   -13096.875   -513.28368    31865.752 
 1570000    303.49991     -15129.6            0   -13256.017   -228.63969    31779.242 
 1580000    301.94733   -15109.764            0   -13245.766   -274.93824    31868.752 
 1590000    301.08386   -14945.278            0    -13086.61   -393.94597    31860.054 
 1600000    290.92909   -15063.218            0   -13267.238    763.44546    31668.032 
 1610000    301.95445   -15115.585            0   -13251.543   -74.341481    31548.126 
 1620000    302.06778   -15128.541            0   -13263.799    316.95906    31645.774 
 1630000    293.28576    -15045.07            0   -13234.542   -407.10197    31964.871 
 1640000    304.63218   -15143.032            0   -13262.459   -364.55142    31571.762 
 1650000    302.51757    -15070.61            0   -13203.091    832.14512    31854.986 
 1660000    302.20442   -15085.604            0   -13220.019    185.19895    31820.592 
 1670000    307.47182    -15030.01            0   -13131.907   -98.053435    31666.706 
 1680000      292.146    -15054.15            0   -13250.658    45.733972    31899.907 
 1690000    310.83512   -15031.527            0   -13112.662    393.30502    32074.175 
 1700000    302.44247   -15000.625            0   -13133.569   -59.720031    31630.078 
 1710000    296.76807   -14965.119            0   -13133.093     177.5432    31681.165 
 1720000    292.37902    -15041.26            0   -13236.328    677.29508    31783.306 
 1730000    307.72483   -15073.813            0   -13174.148    17.242289    31704.832 
 1740000    287.19401    -14983.31            0   -13210.388    460.45278    31601.238 
 1750000    298.81952   -15074.857            0   -13230.167   -32.258413    31618.208 
 1760000    287.72041   -15112.732            0    -13336.56   -449.94793    31802.258 
 1770000    293.49857   -15059.247            0   -13247.405   -332.52819    32242.311 
 1780000    285.45632    -15036.54            0   -13274.345   -311.48322     31958.76 
 1790000    291.25952   -15050.154            0   -13252.134    324.43054    31556.382 
 1800000    300.04696   -15070.056            0   -13217.789    46.732727    31711.206 
 1810000    305.47971   -15041.254            0   -13155.449    711.18523    31246.117 
 1820000     298.1278   -15122.501            0   -13282.081    421.77584    31494.646 
 1830000    296.14476    -15090.82            0   -13262.642    183.61838    32119.482 
 1840000    295.86135   -14999.776            0   -13173.348    479.20871    31611.196 
 1850000    302.14705   -15069.404            0   -13204.173    182.81392    31732.828 
 1860000    291.14027   -15058.046            0   -13260.762   -76.519472    31625.851 
 1870000    291.05466   -15056.135            0    -13259.38    207.91363    31824.728 
 1880000    306.92239   -15013.592            0   -13118.881   -109.44008    32058.706 
 1890000    296.01368   -15056.366            0   -13228.997   -190.30702    31352.909 
 1900000    287.37927   -15066.489            0   -13292.423    272.13954    31276.403 
 1910000     302.9334   -15038.559            0   -13168.473    315.88568     31808.14 
 1920000    300.68004   -14974.225            0   -13118.049   -730.18919    31954.803 
 1930000     296.1079   -15105.318            0   -13277.368   -511.20846    32103.516 
 1940000    303.01077   -14958.453            0   -13087.889    476.16737    32089.038 
 1950000    308.81254   -15053.913            0   -13147.534    968.96006    31100.901 
 1960000    295.69676   -15061.222            0   -13235.809   -645.21311    31747.958 
 1970000    295.66845   -15034.501            0   -13209.264   -376.63553    31738.179 
 1980000    302.73679   -15045.464            0   -13176.592    551.15817    31588.739 
 1990000    290.05909    -15045.36            0   -13254.751    -466.2864    31976.191 
 2000000    288.03527   -14991.661            0   -13213.545     472.9426    31594.637 
 2010000    311.59737   -15022.912            0   -13099.341    201.57288    31642.117 
 2020000    302.17962   -15013.985            0   -13148.552    25.911298    32304.933 
 2030000    297.74416   -15047.687            0   -13209.636   -350.16976    31739.969 
 2040000    299.51656   -14981.547            0   -13132.554     63.50744    31669.467 
 2050000    290.44754   -15097.289            0   -13304.282    96.072298    31462.853 
 2060000    310.29109    -14902.52            0   -12987.013   -666.44395    31905.338 
 2070000    285.93376   -15093.481            0   -13328.338    648.42862    31390.823 
 2080000    302.85163   -15017.757            0   -13148.175    335.41018    31744.138 
 2090000    300.03234    -15044.12            0   -13191.943    329.50719    31711.032 
 2100000    297.76233    -15020.44            0   -13182.277    956.44516    31521.624 
 2110000    299.42595   -14989.104            0   -13140.671   -564.64895    31635.935 
 2120000    300.19005   -15105.671            0    -13252.52    733.44328    31760.073 
 2130000    299.05872   -15005.011            0   -13158.845    215.37424    31865.872 
 2140000    292.00538   -15101.148            0   -13298.524   -459.15875    31676.669 
 2150000    310.47994   -15130.253            0    -13213.58    738.39715    31693.108 
 2160000    291.52619   -15074.699            0   -13275.033   -419.49886    31796.915 
 2170000    293.33113     -15026.4            0   -13215.591   -657.85297    32050.805 
 2180000    300.21422   -15025.614            0   -13172.314   -351.93211    31985.923 
 2190000    291.46699   -15034.543            0   -13235.242   -292.60888    31619.719 
 2200000    298.48357   -14952.734            0   -13110.118   -123.01227    31515.504 
 2210000    288.35124   -15118.628            0   -13338.562   -155.92663    32006.572 
 2220000    292.95489   -15065.835            0   -13257.349    748.79969    31805.094 
 2230000    307.09326   -15044.721            0   -13148.955    -152.6983    31946.448 
 2240000    296.57472   -15011.557            0   -13180.724   -577.26863    32118.433 
 2250000    301.68333    -14934.47            0   -13072.101    -629.2781    32322.704 
 2260000    303.96126    -14976.75            0   -13100.319   -438.49638    32239.122 
 2270000    293.20741   -15100.061            0   -13290.016   -1068.1124    31803.916 
 2280000    293.33738   -15016.407            0    -13205.56    1062.8703    31266.439 
 2290000    300.27884   -15071.014            0   -13217.316   -1264.5218    31751.659 
 2300000    315.24599   -15044.477            0   -13098.382    16.241196    32115.494 
 2310000    311.00637   -15021.819            0   -13101.897   -321.26176    31586.206 
 2320000    290.93668   -15014.324            0   -13218.297   -10.755461    31952.224 
 2330000    296.60288   -15061.449            0   -13230.443     603.3193    31622.223 
 2340000    304.19257   -15099.412            0   -13221.553   -156.71244    31649.051 
 2350000    293.22349   -15020.376            0   -13210.231      -679.36    32112.568 
 2360000    292.30654   -15056.557            0   -13252.074     232.2303    31599.364 
 2370000    296.54543   -14965.953            0   -13135.302     456.5647    32155.557 
 2380000    297.46794   -14933.694            0   -13097.348   -484.00256    31821.811 
 2390000    301.60403   -15024.064            0   -13162.184    443.02119    31992.861 
 2400000     299.2082   -15078.306            0   -13231.217    36.466349    32060.621 
 2410000     301.9424   -15084.882            0   -13220.914    604.00739    31633.748 
 2420000     302.8869   -15068.303            0   -13198.504    816.80236    31469.311 
 2430000     292.9745   -14967.818            0    -13159.21   -113.46213    32006.888 
 2440000    295.27838   -15063.774            0   -13240.945   -551.76911    32049.865 
 2450000    299.03049   -15020.631            0   -13174.639     482.4659    31435.219 
 2460000    299.31635   -15072.809            0   -13225.052   -318.20297    31815.341 
 2470000    298.16483   -15121.137            0   -13280.488    73.814957     31417.13 
 2480000    297.01687   -15044.282            0   -13210.721    548.82346    31703.377 
 2490000    286.36409   -15086.764            0   -13318.965   -745.16604    31671.676 
 2500000    293.74695   -15075.063            0   -13261.688   -214.14852    31555.315 
 2510000    291.86949   -15042.575            0   -13240.789    339.22362    31764.895 
 2520000    294.32036   -15146.673            0   -13329.758    -271.7391    31515.347 
 2530000    296.49877   -15041.488            0   -13211.125   -232.46847    32138.776 
 2540000    295.41538   -14996.586            0    -13172.91   -1072.4624    32234.813 
 2550000    298.64671   -15061.311            0   -13217.688    231.34053    31694.802 
 2560000    307.19165   -15017.377            0   -13121.004    399.11299     31850.73 
 2570000    298.25022   -15085.324            0   -13244.149    102.22401    31905.967 
 2580000    296.58271   -14948.625            0   -13117.743   -376.56017    31809.043 
 2590000    288.81719   -15149.729            0   -13366.786   -305.06026    31615.904 
 2600000    296.68818   -15054.558            0   -13223.026   -61.631524    31704.072 
 2610000    296.24323   -15037.461            0   -13208.676    65.434239    31438.186 
 2620000    299.29717   -15050.778            0   -13203.139    993.81231    31509.882 
 2630000    304.91085   -15173.787            0   -13291.494   -152.79665    32186.228 
 2640000    298.09907    -15072.31            0   -13232.068   -986.21029    31787.174 
 2650000    292.81653   -15107.259            0   -13299.627    606.37346    31671.233 
 2660000    299.71205   -15114.282            0   -13264.082    120.60011    31447.885 
 2670000    302.76407   -15052.012            0   -13182.972    531.53212    31779.483 
 2680000     303.3235    -15045.62            0   -13173.126     359.8946    31667.607 
 2690000    295.66366   -15031.505            0   -13206.297   -1080.7769    31927.202 
 2700000    295.08911   -15032.524            0   -13210.863   -200.54732    31745.014 
 2710000    283.20297   -15124.238            0   -13375.953    127.73274    31992.121 
 2720000    300.41932    -15017.18            0   -13162.614   -486.42444     31986.99 
 2730000    300.79945   -14985.826            0   -13128.914   -662.96257    32171.065 
 2740000    291.93115   -15068.041            0   -13265.874    274.15378    32127.682 
 2750000    304.88102   -15077.646            0   -13195.537   -528.29618    32001.171 
 2760000    292.76338   -15023.016            0   -13215.712     299.4801    31800.785 
 2770000     304.4828   -15041.112            0   -13161.461   -309.38779    31860.283 
 2780000    299.49097   -15148.671            0   -13299.836    99.107153    31446.402 
 2790000    294.63278   -15073.584            0    -13254.74    168.82494    31522.466 
 2800000    297.25872   -15017.609            0   -13182.555    51.396404    31571.915 
 2810000    294.76881    -14979.03            0   -13159.347    163.12714    31908.532 
 2820000    295.83733   -15000.509            0   -13174.229   -86.066807    32319.313 
 2830000    294.58663   -15085.054            0   -13266.495   -73.740938    31642.198 
 2840000    296.23373   -15081.665            0   -13252.938    120.26053     31388.88 
 2850000    302.19127   -15086.976            0   -13221.472   -124.30881    31664.413 
 2860000    294.49121   -15060.693            0   -13242.723    362.83683    31284.332 
 2870000    305.34177   -15032.231            0   -13147.278    264.98012    31712.698 
 2880000    305.42033   -14951.048            0   -13065.609    549.15064    32030.175 
 2890000    302.98802   -14947.661            0   -13077.238   -1292.4948    32147.559 
 2900000    296.39728   -15104.496            0    -13274.76   -373.70446    31612.348 
 2910000    297.56672     -15102.4            0   -13265.444   -275.85377    31867.894 
 2920000    295.70485   -15084.355            0   -13258.892   -135.94764    31925.079 
 2930000     303.3082   -14965.198            0   -13092.798   -794.56955    31742.787 
 2940000    290.20502   -14986.966            0   -13195.456   -942.38803    31992.741 
 2950000    297.43857    -15041.56            0   -13205.395   -345.41565    31925.034 
 2960000    301.85541   -14979.583            0   -13116.152    227.10156    31726.095 
 2970000    308.85888   -15032.539            0   -13125.874    466.88301    31919.968 
 2980000    297.37996   -15051.639            0   -13215.836    97.461613    31582.397 
 2990000    296.58927   -15014.175            0   -13183.253   -206.98137    31999.064 
 3000000    294.88087   -15030.634            0   -13210.258    207.93152    31986.356 
 3010000    295.57941   -15095.835            0   -13271.147   -922.98811    32158.471 
 3020000    301.36178    -15038.57            0   -13178.186    477.25273    31085.867 
 3030000    286.33558   -15054.523            0     -13286.9   -163.94554     31595.75 
 3040000    295.70305   -15068.372            0   -13242.921    613.17598     31702.58 
 3050000    298.85301   -15022.812            0   -13177.916   -136.59762    31721.079 
 3060000    294.09118   -14975.237            0   -13159.736    211.40132    31418.129 
 3070000    292.87349   -15009.245            0   -13201.262   -558.49603     32207.87 
 3080000     293.4454   -15007.578            0   -13196.064   -638.22103    31909.722 
 3090000    293.22796   -15103.633            0   -13293.462   -268.77152    31720.358 
 3100000    294.70262   -15040.608            0   -13221.333    79.294197    31733.931 
 3110000     301.7295   -15068.139            0   -13205.485   -169.98284    32019.863 
 3120000    298.35705   -15044.517            0   -13202.682   -472.87762    31629.971 
 3130000    303.63988   -15087.631            0   -13213.184   -771.07225    31892.762 
 3140000    300.03814   -14957.706            0   -13105.494   -104.64185    31884.699 
 3150000    295.95321   -15044.497            0   -13217.501    146.43471    31858.288 
 3160000    298.98248   -15039.178            0   -13193.482    58.103585    32013.208 
 3170000    302.76803   -15077.171            0   -13208.106   -283.73699     31614.58 
 3180000    289.89682   -15106.664            0   -13317.056    22.739529     31677.14 
 3190000    302.42623   -15043.975            0    -13177.02     880.3425    31911.033 
 3200000    302.97559   -15060.984            0   -13190.638    -759.0629    32109.337 
 3210000    295.51401   -15074.379            0   -13250.095   -535.39783    31702.773 
 3220000    297.10006   -15022.199            0   -13188.124    230.36043    32023.244 
 3230000    297.77088   -14959.979            0   -13121.763   -172.99314     32025.04 
 3240000    308.12834   -14997.722            0   -13095.567   -327.10973    31848.259 
 3250000    307.74786   -15043.447            0    -13143.64    914.72798    31415.293 
 3260000    295.73532   -15029.435            0   -13203.784   -1074.1176    32135.836 
 3270000    299.18423   -15037.921            0    -13190.98    245.81228    31648.358 
 3280000    300.89781   -15013.682            0   -13156.162    1107.2239    31548.986 
 3290000    296.68827   -15000.614            0   -13169.081    342.48788    31808.831 
 3300000    290.58283   -15077.398            0   -13283.555   -571.90266    31883.949 
 3310000    295.37327   -15023.072            0   -13199.657   -261.59949    31875.139 
 3320000     289.7738   -15094.866            0   -13306.018    523.09621    31610.956 
 3330000    293.19823   -15056.519            0   -13246.531   -210.11589    31685.225 
 3340000     304.0362   -15004.964            0    -13128.07   -743.53965    32232.324 
 3350000    291.62897   -15037.982            0   -13237.682    426.08453    31935.116 
 3360000    306.07638    -15003.89            0   -13114.402    -320.3016    31831.904 
 3370000    303.46036   -15075.813            0   -13202.474   -441.89812     32155.72 
 3380000    293.50091   -15038.048            0   -13226.192   -56.302803    31829.187 
 3390000    289.02314   -15099.626            0   -13315.412   -471.72946    32029.115 
 3400000    294.40564   -14985.297            0   -13167.855   -158.05941    31686.631 
 3410000    298.45547    -15120.29            0   -13277.848    -708.0118     31931.34 
 3420000    306.24227   -14968.914            0   -13078.402   -330.27063    31851.553 
 3430000    304.90642   -15033.664            0   -13151.398   -542.18006    31790.206 
 3440000    297.78691   -15094.822            0   -13256.507   -471.02772    31967.086 
 3450000    295.13011   -15004.057            0   -13182.143   -18.905094    31487.911 
 3460000    302.51204   -15157.501            0   -13290.017   -265.11717     31857.96 
 3470000     302.1698   -15059.791            0   -13194.418    306.61602    31985.393 
 3480000    289.93856   -14955.777            0   -13165.912    21.393917    31941.499 
 3490000     287.9116   -15113.107            0   -13335.754     -345.459    32025.602 
 3500000     310.6199   -15076.433            0   -13158.897    306.45181    31563.341 
 3510000    297.88047   -15052.603            0   -13213.711   -361.25743    31916.902 
 3520000    294.67571   -14981.065            0   -13161.956   -512.02253     32172.22 
 3530000    291.93693   -14947.962            0    -13145.76   -207.84743    31906.236 
 3540000    295.00618   -15124.978            0   -13303.829    18.667765     31915.83 
 3550000    295.13204   -15044.999            0   -13223.073    742.26968    31205.657 
 3560000    302.87954   -14982.506            0   -13112.753   -563.28342    31630.896 
 3570000    294.76287   -15078.273            0   -13258.626   -270.54806    31640.043 
 3580000     300.9411   -15020.442            0   -13162.655   -238.81812    31786.823 
 3590000    290.00068   -14989.266            0   -13199.017    292.82449    31847.353 
 3600000    298.19425   -15039.056            0   -13198.227    424.03003    31882.292 
 3610000    297.68007   -15013.736            0    -13176.08   -502.38066    32041.495 
 3620000    301.10501   -15177.654            0   -13318.856    495.87604    31602.467 
 3630000    298.58571   -15133.642            0   -13290.395    212.10392    31778.393 
 3640000     290.1615   -15037.871            0   -13246.629    217.32745     31435.95 
 3650000    299.58973   -14994.781            0   -13145.337   -191.16325    31622.879 
 3660000    298.18849   -15050.218            0   -13209.424    130.03222     31497.21 
 3670000    291.51514   -14988.439            0   -13188.841   -453.65346    31949.039 
 3680000    308.20425   -15039.607            0   -13136.983    198.91638    31788.101 
 3690000    288.22519   -15115.976            0   -13336.688    245.90514    31785.693 
 3700000    296.68772   -15062.269            0   -13230.739   -706.85587    31970.379 
 3710000    303.58219    -15009.42            0   -13135.329   -92.923664    31819.828 
 3720000    298.79209   -15091.661            0   -13247.141   -133.83862    31642.264 
 3730000    290.60896   -14999.612            0   -13205.608    738.47135    31573.498 
 3740000    303.07258   -14922.972            0   -13052.027    184.15952    31889.908 
 3750000    306.92558   -14997.115            0   -13102.384    27.940982    31802.094 
 3760000    303.31659   -15067.564            0   -13195.112   -162.97853    32208.053 
 3770000    294.46047   -14870.184            0   -13052.404   -132.78882    31720.065 
 3780000     305.0174   -15020.492            0   -13137.541   -239.82234    32027.322 
 3790000    307.03477   -15100.797            0   -13205.392    215.94213    31762.412 
 3800000    304.48763   -15133.815            0   -13254.134   -516.21365    31978.036 
 3810000    292.61827   -15035.161            0   -13228.753   -1025.2628    32138.278 
 3820000    302.76617   -15045.824            0   -13176.771    737.34997    31633.412 
 3830000    302.84704   -15066.713            0    -13197.16   -501.80133    31890.394 
 3840000     292.3573   -15047.096            0   -13242.299   -29.079188    31814.723 
 3850000    289.03844   -15023.703            0   -13239.395    -172.1879    31517.496 
 3860000    301.60489    -15085.93            0   -13224.045    488.80697    31485.383 
 3870000    303.97378   -15059.156            0   -13182.648    991.76517    31523.177 
 3880000    296.67233   -15095.114            0   -13263.679    116.36295     31872.88 
 3890000    310.49681   -15098.452            0   -13181.676    523.25217    31872.029 
 3900000    310.45634   -15025.558            0   -13109.031    965.23197    31610.365 
 3910000    296.83272   -14996.027            0   -13163.602    703.86052    31566.631 
 3920000    295.13958   -15106.204            0   -13284.231   -950.44349    31724.426 
 3930000    295.51255   -15094.549            0   -13270.274   -34.361652    31637.314 
 3940000    296.85646   -15040.411            0    -13207.84   -83.048825    31985.209 
 3950000    296.81872   -14974.739            0     -13142.4   -158.51936    32336.554 
 3960000    295.60834   -15099.573            0   -13274.706    85.271372    31850.374 
 3970000    295.02689   -14954.042            0   -13132.765   -648.81843    32262.232 
 3980000    298.61536   -15072.676            0   -13229.246    425.33601    31463.992 
 3990000    302.06863   -15072.691            0   -13207.944    199.37652    32163.355 
 4000000    298.90637    -15039.52            0   -13194.294   -862.60191    31720.957 
 4010000    300.07341   -15043.598            0   -13191.168    41.793997    31312.774 
 4020000    299.80296   -15055.554            0   -13204.793    355.95112    31723.267 
 4030000    293.00989   -15095.219            0   -13286.394   -421.42975    31597.277 
 4040000    298.92649    -14930.94            0   -13085.589   -932.62641     31998.63 
 4050000    293.63042   -15055.602            0   -13242.946    158.07717    31494.781 
 4060000    288.91988   -15076.107            0    -13292.53   -1481.4372    32286.605 
 4070000    300.95257   -15024.054            0   -13166.196    202.01599    31533.416 
 4080000    295.83915   -15048.697            0   -13222.406   -85.772661    31818.893 
 4090000    299.64683   -14946.233            0   -13096.436    18.809403    31634.971 
 4100000    297.18653   -14956.816            0   -13122.207   -62.310632    32008.087 
 4110000    290.48071   -15035.826            0   -13242.614   -993.18671     31997.02 
 4120000    297.39335   -15061.141            0   -13225.255    65.094089    31872.352 
 4130000    293.81132   -15076.944            0   -13263.171     591.1292    31551.003 
 4140000    300.67933   -15141.306            0   -13285.135   -779.05579    31881.924 
 4150000    292.18694   -14969.881            0   -13166.136    -99.92769    31806.756 
 4160000    299.21769    -15074.92            0   -13227.772    612.45836    31656.466 
 4170000    291.86962   -15050.204            0   -13248.417   -241.55573    32165.626 
 4180000    298.48295   -15027.085            0   -13184.473   -28.774648    32323.912 
 4190000    291.15403   -14998.912            0   -13201.543    49.875664    31838.657 
 4200000    293.22351   -14969.779            0   -13159.635    -577.9851    32225.694 
 4210000    294.55192   -15099.782            0   -13281.437   -41.939642    31627.839 
 4220000    298.09648   -15140.303            0   -13300.077   -71.990248    31734.641 
 4230000    295.79228   -15029.311            0   -13203.309    428.66672    31852.551 
 4240000     303.8801   -15087.659            0   -13211.729    859.24734    31938.225 
 4250000    295.10849   -15029.441            0    -13207.66    249.68639    31679.123 
 4260000    292.59981   -15003.719            0   -13197.425   -408.11126    32174.886 
 4270000    294.55169   -15109.463            0   -13291.119   -623.29311    31843.709 
 4280000    292.75808   -15039.649            0   -13232.378    414.68236    31936.223 
 4290000    289.30056   -15060.523            0   -13274.596   -492.70402    31631.566 
 4300000    287.43969   -15024.956            0   -13250.517    333.99049    31462.947 
 4310000    298.71206   -15053.441            0   -13209.415     451.5707    31648.304 
 4320000    294.26457    -15086.38            0   -13269.809    321.71546    31769.971 
 4330000    286.25802   -15067.643            0   -13300.498   -194.41028    32090.203 
 4340000    292.07932   -14989.837            0   -13186.756   -263.68907    31725.618 
 4350000    300.63351   -15033.395            0   -13177.507    168.71756    31671.959 
 4360000    297.77268   -15030.347            0    -13192.12   -791.65473    31925.642 
 4370000     287.2699   -14968.257            0   -13194.866    496.31431    31625.213 
 4380000    296.47337   -15086.588            0   -13256.381   -389.25646    31940.988 
 4390000    296.87124   -15010.649            0   -13177.986    212.02454    31584.793 
 4400000    292.62621   -15057.399            0   -13250.942   -57.730161    32060.601 
 4410000    304.72759   -15052.951            0   -13171.789    256.06754    31961.792 
 4420000    292.73804   -15072.506            0   -13265.359    332.48594    31805.018 
 4430000     290.9397   -15090.008            0   -13293.963   -568.10768    31927.617 
 4440000    300.39091    -15071.83            0    -13217.44    133.70639    31653.801 
 4450000    304.39257   -15032.374            0    -13153.28   -91.049119    31643.278 
 4460000     310.2756   -15030.558            0   -13115.147    499.89391    31726.526 
 4470000    296.36976   -15013.742            0   -13184.175    151.17075    31529.601 
 4480000    295.22524   -15094.314            0   -13271.813   -642.64858    32197.768 
 4490000    298.38165   -15038.408            0   -13196.421    44.131814    31840.425 
 4500000    301.76659   -15074.703            0    -13211.82   -67.473137    31661.176 
 4510000    310.08955   -15010.818            0   -13096.555    98.254104    31860.995 
 4520000    297.57005    -14990.21            0   -13153.233     297.0282    31722.419 
 4530000    298.67108   -15134.773            0       -13291    749.67818    31474.896 
 4540000    307.88764   -14991.454            0   -13090.784    133.06721    32058.263 
 4550000    304.24821   -14987.336            0   -13109.133   -484.76536    31948.997 
 4560000    289.67411    -15031.49            0   -13243.257   -155.50254    31569.431 
 4570000    292.91326   -14963.947            0   -13155.718    548.98296    31709.127 
 4580000    304.75373   -15069.319            0   -13187.995   -399.05191    32138.774 
 4590000    290.36316   -15000.403            0   -13207.917    155.60574    31645.235 
 4600000    299.31556   -15067.265            0   -13219.513    179.23679    32006.156 
 4610000     304.2053   -15048.016            0   -13170.079    -297.1945    31818.212 
 4620000    301.79315   -15013.183            0   -13150.136   -244.26435    31645.117 
 4630000     303.5044    -15095.78            0   -13222.169    593.17412    31903.889 
 4640000     303.9324   -14952.745            0   -13076.492    718.92665     31563.21 
 4650000    289.18166   -15065.555            0   -13280.362   -141.60602    31554.221 
 4660000    303.29903   -15052.616            0   -13180.273    72.385927    32012.317 
 4670000    291.94218   -14948.939            0   -13146.705   -103.90177    31898.918 
 4680000    300.57108   -14974.582            0   -13119.079   -448.15001    31726.548 
 4690000     295.4412     -15042.3            0   -13218.465    69.607051    31821.156 
 4700000    292.50901   -15066.127            0   -13260.393    2.8698182    31483.757 
 4710000    292.86311    -15023.34            0    -13215.42    538.12507    31395.699 
 4720000    307.48955   -15044.435            0   -13146.223   -88.110947    32133.357 
 4730000    294.74439   -15054.516            0   -13234.983   -69.968114     31554.42 
 4740000    301.26296   -15096.792            0   -13237.018    215.39395    31698.179 
 4750000    291.98891   -15076.776            0   -13274.253     102.1362    31552.879 
 4760000    293.90406   -15107.395            0    -13293.05   -289.17433    31582.055 
 4770000    288.24358   -15094.392            0    -13314.99   -249.55239    31709.713 
 4780000    285.98831   -15046.781            0   -13281.301   -903.88916    32039.595 
 4790000     305.8531   -15037.286            0   -13149.176    921.93864    31231.892 
 4800000    291.02775   -15075.088            0   -13278.499   -170.27969    32172.044 
 4810000    309.18569    -14960.23            0   -13051.548    -86.33333    32193.883 
 4820000    290.05622   -15051.498            0   -13260.907     580.6935     31476.36 
 4830000    292.87337   -15075.556            0   -13267.573   -145.17923    31518.595 
 4840000    299.95486   -15047.532            0   -13195.834   -151.50782    32328.724 
 4850000    297.32105   -15062.805            0   -13227.365    559.82273    31679.364 
 4860000    296.21029   -15025.935            0   -13197.353    41.407443    32403.883 
 4870000    291.16611    -14981.33            0   -13183.887    205.83604    31817.532 
 4880000    305.73851   -15070.709            0   -13183.306   -244.25126    32034.374 
 4890000     286.0363   -15091.923            0   -13326.147   -609.34491    32156.422 
 4900000    297.09085   -15064.612            0   -13230.593    70.290745    31973.209 
 4910000    304.79731   -15042.943            0   -13161.351    723.01174    31723.474 
 4920000    291.47359   -15011.972            0   -13212.631   -75.894219    32066.248 
 4930000    293.58188   -15066.682            0   -13254.326   -830.79744     31523.87 
 4940000    301.27014   -15076.545            0   -13216.726   -226.76554    32175.559 
 4950000    297.54689   -15035.243            0   -13198.409   -483.04443    32153.283 
 4960000    303.32022   -15055.536            0   -13183.062   -422.65651    31324.679 
 4970000    297.24046   -15084.377            0   -13249.435    353.06352    31781.534 
 4980000    299.85112   -15013.177            0   -13162.119    292.71444     31724.62 
 4990000    302.57789   -15022.948            0   -13155.057   -592.32878     31983.93 
 5000000    295.30643   -15128.029            0   -13305.027    1267.7181     31458.66 
Loop time of 5219.92 on 128 procs for 5000000 steps with 3072 atoms

Performance: 165.520 ns/day, 0.145 hours/ns, 957.869 timesteps/s
99.3% CPU use with 128 MPI tasks x no OpenMP threads

MPI task timing breakdown:
Section |  min time  |  avg time  |  max time  |%varavg| %total
---------------------------------------------------------------
Pair    | 1157.4     | 1394       | 1611.1     | 296.5 | 26.70
Bond    | 0.48531    | 0.57623    | 1.0972     |  11.4 |  0.01
Kspace  | 2136.5     | 2344       | 2557.6     | 222.7 | 44.90
Neigh   | 141.75     | 145.91     | 149.57     |  26.1 |  2.80
Comm    | 547.2      | 612.39     | 688.74     | 134.7 | 11.73
Output  | 0.041579   | 0.042153   | 0.043048   |   0.2 |  0.00
Modify  | 535.18     | 639.01     | 688.14     | 140.4 | 12.24
Other   |            | 84.06      |            |       |  1.61

Nlocal:    24 ave 31 max 15 min
Histogram: 1 3 4 15 14 34 34 10 8 5
Nghost:    2918.86 ave 2957 max 2885 min
Histogram: 6 10 13 17 25 21 17 10 6 3
Neighs:    9144.8 ave 12835 max 6228 min
Histogram: 7 10 14 26 20 23 12 11 4 1

Total # of neighbors = 1170535
Ave neighs/atom = 381.034
Ave special neighs/atom = 1.95312
Neighbor list builds = 437346
Dangerous builds = 0
PPPM initialization ...
  extracting TIP4P info from pair style
  using 12-bit tables for long-range coulomb (../kspace.cpp:321)
  G vector (1/distance) = 0.311471
  grid = 30 30 30
  stencil order = 5
  estimated absolute RMS force accuracy = 0.00350878
  estimated relative force accuracy = 1.05666e-05
  using double precision FFTs
  3d grid and FFT values/proc = 2475 256
Setting up Verlet run ...
  Unit style    : real
  Current step  : 0
  Time step     : 2
Per MPI rank memory allocation (min/avg/max) = 8.201 | 8.212 | 8.219 Mbytes
Density 
   1.0925986 
     1.07692 
   1.0935833 
    1.087119 
   1.0920618 
   1.0844407 
   1.0970272 
   1.0833939 
   1.0644527 
   1.0849449 
   1.0780925 
   1.0937383 
   1.0773368 
   1.0648399 
   1.0852263 
   1.0776881 
   1.0719801 
    1.069407 
   1.0799768 
   1.0667102 
   1.0725271 
   1.0684274 
   1.0781873 
    1.070693 
   1.0981818 
   1.0795525 
   1.0868859 
   1.0952257 
   1.0751881 
   1.0625324 
      1.0735 
   1.0819809 
   1.0811831 
   1.0847714 
    1.088896 
   1.0785951 
   1.0626012 
   1.0785906 
   1.0665741 
   1.0643381 
   1.0766766 
   1.0866645 
   1.0726512 
   1.0786903 
   1.0883562 
   1.0764018 
   1.0846185 
   1.0851942 
   1.0695955 
   1.0884203 
    1.073727 
   1.0795463 
   1.0719539 
   1.0920577 
   1.0747831 
   1.0827308 
   1.0696625 
    1.072924 
   1.0913555 
   1.0866619 
   1.0853141 
   1.0793874 
   1.0903012 
   1.0761906 
   1.0780777 
   1.0849429 
   1.0764961 
    1.084595 
   1.0692662 
   1.0759931 
   1.0831287 
   1.0869901 
   1.0668505 
    1.089332 
   1.0839676 
   1.0762071 
   1.0895156 
     1.08677 
   1.0705324 
   1.0736056 
   1.0764535 
   1.0842491 
   1.0672163 
   1.0868828 
   1.0957962 
   1.0763045 
   1.0730326 
   1.1000715 
    1.080142 
   1.0763508 
   1.0681599 
   1.0755417 
   1.0943871 
   1.1100886 
   1.0877323 
   1.0773132 
   1.0665816 
   1.0760424 
   1.0861423 
   1.0857471 
   1.0698397 
    1.079058 
   1.0853259 
   1.0796037 
   1.0846561 
   1.0821975 
   1.0855662 
   1.0749955 
   1.0903751 
   1.0821926 
   1.0856411 
   1.0870392 
   1.0817379 
   1.0809187 
   1.0788965 
   1.0783672 
   1.0697577 
   1.0761129 
   1.0809904 
   1.0620735 
    1.078107 
   1.0870347 
   1.0740172 
   1.0949854 
   1.0852396 
   1.0843491 
   1.0810374 
   1.0704513 
   1.0770775 
   1.0743355 
   1.0899541 
   1.0674798 
   1.0919458 
   1.0843473 
   1.0846767 
   1.0900604 
   1.0749454 
   1.0937311 
    1.074723 
   1.0741805 
   1.0854272 
   1.0847856 
   1.0717695 
   1.0836813 
   1.0835169 
   1.0779914 
   1.0676953 
   1.0763882 
   1.0906093 
   1.0817082 
   1.0806341 
   1.0952594 
   1.0818048 
   1.0746001 
   1.0837685 
   1.0696626 
   1.0740206 
   1.0841613 
   1.0985661 
   1.0844638 
   1.0729413 
   1.0667432 
   1.0768649 
   1.0684644 
   1.0729462 
   1.0762924 
   1.0838077 
   1.0761854 
   1.0974847 
   1.0798422 
   1.0661558 
   1.0916901 
   1.0938047 
   1.0653627 
   1.0921461 
   1.0745318 
   1.0803653 
   1.0863902 
   1.0791729 
   1.0959502 
   1.0737217 
   1.0758254 
   1.0898009 
   1.0832507 
   1.0905688 
   1.0878703 
   1.0783827 
   1.0900155 
   1.0804638 
   1.0802785 
     1.07702 
    1.077592 
    1.086802 
   1.0770476 
   1.0745083 
   1.0709602 
   1.0739224 
   1.0945311 
   1.0892039 
   1.0746436 
   1.0786242 
   1.0696918 
   1.0706837 
   1.0890096 
   1.0719748 
   1.0845823 
   1.0884676 
    1.064347 
   1.0736915 
   1.0889313 
   1.0659376 
    1.087895 
    1.088256 
   1.0726114 
   1.0669383 
   1.0834591 
   1.0715712 
   1.0837992 
   1.0940732 
   1.0752935 
   1.0792375 
   1.0899389 
   1.0917439 
   1.0922065 
   1.0780146 
   1.0792051 
   1.0795692 
   1.0797496 
   1.0853038 
   1.0862002 
   1.0942418 
   1.0812524 
   1.0909512 
   1.0702221 
   1.1064354 
   1.0694412 
   1.0742069 
   1.0742126 
   1.0772339 
   1.0855658 
   1.0783036 
   1.0784485 
   1.0731302 
   1.0748652 
   1.0868786 
   1.0891817 
   1.0762969 
   1.0734461 
   1.0753875 
   1.0709132 
   1.0757237 
    1.075912 
   1.0914857 
   1.0778224 
   1.0873872 
   1.0772082 
   1.0749369 
   1.0821477 
   1.0739613 
   1.0756169 
   1.0784521 
   1.0888706 
   1.0727624 
   1.0791862 
   1.0770155 
   1.0879889 
   1.0830584 
   1.0872616 
   1.0805266 
   1.0732637 
   1.0737832 
   1.0848671 
    1.066675 
   1.0825564 
   1.0891906 
    1.076647 
    1.083752 
   1.0863449 
   1.0796559 
   1.0853739 
   1.0761965 
     1.09105 
   1.0756428 
   1.0640441 
   1.0710817 
    1.066594 
   1.0752755 
   1.0869557 
   1.0856212 
   1.0894734 
   1.0771007 
   1.0856423 
   1.0997845 
   1.0918495 
   1.0961074 
   1.0738077 
   1.0845202 
   1.0815968 
   1.0796982 
   1.0789826 
   1.0854732 
   1.0723376 
     1.08958 
   1.0820374 
   1.0763914 
   1.0943641 
   1.0832716 
   1.0775504 
   1.0721372 
   1.0735819 
   1.0999409 
   1.0709777 
   1.0853503 
   1.0932313 
   1.0927923 
   1.0686259 
   1.0575831 
   1.0749218 
   1.0913016 
   1.0860041 
   1.0790791 
   1.0831436 
   1.0933986 
    1.079758 
   1.0708504 
    1.078465 
   1.0746151 
   1.0754065 
   1.0915199 
   1.0855937 
   1.0942804 
   1.0769436 
   1.0818436 
   1.0817789 
   1.0782395 
   1.0717048 
   1.0948346 
   1.0827684 
   1.0723113 
   1.0720986 
   1.0695119 
    1.087856 
   1.0704184 
   1.0784135 
    1.074837 
   1.0862263 
   1.0767251 
   1.0763012 
   1.0792538 
   1.0849052 
   1.0810264 
   1.0633661 
   1.0780079 
   1.0769141 
   1.0815379 
   1.0861943 
   1.0804907 
   1.0853642 
    1.060895 
   1.0864055 
   1.0910312 
   1.0732834 
   1.0918084 
   1.0848604 
   1.0845983 
   1.0753003 
   1.0840985 
    1.084064 
   1.0767683 
   1.0734619 
   1.0868865 
   1.0722699 
   1.0810786 
   1.0678998 
   1.0864772 
   1.0741949 
   1.0818766 
   1.0751103 
   1.0778078 
   1.0801045 
   1.1002607 
   1.0745339 
   1.0952329 
   1.1033539 
   1.0808664 
   1.0808556 
   1.0737163 
   1.0782315 
   1.0802197 
   1.0788784 
   1.0775535 
   1.0799156 
   1.0822851 
   1.0608321 
   1.0698791 
   1.0888854 
   1.0787757 
   1.0896494 
   1.0736609 
   1.0918652 
   1.0707577 
   1.0856339 
   1.0885532 
   1.0950161 
   1.0820911 
   1.0717422 
   1.0736369 
   1.1024635 
   1.0660132 
    1.090004 
   1.0607461 
    1.094735 
   1.0822728 
   1.0778733 
   1.0655114 
   1.0922306 
    1.088692 
   1.0600851 
   1.0777135 
   1.0715998 
   1.0793389 
   1.0825817 
   1.0654814 
   1.0930542 
   1.0899606 
   1.0790503 
   1.0717949 
   1.0743136 
   1.0834985 
   1.0875233 
   1.0743623 
   1.0976686 
    1.092929 
   1.0786664 
   1.0857258 
   1.0915009 
   1.0987573 
   1.0844049 
   1.0790523 
   1.0863029 
   1.0732739 
   1.0824663 
    1.077283 
   1.1014156 
   1.0667115 
   1.0953493 
   1.0803469 
   1.0871813 
    1.092846 
   1.0804868 
   1.0679303 
   1.0827385 
   1.0805711 
   1.0781947 
   1.0677626 
   1.0745507 
   1.0883118 
   1.0872698 
   1.0830925 
   1.0902252 
    1.077037 
    1.074871 
   1.0871048 
   1.0868284 
   1.0854344 
   1.0794032 
   1.0720131 
   1.0797449 
   1.0658144 
   1.0963315 
    1.092342 
   1.0841677 
    1.083633 
   1.0737927 
   1.0662159 
   1.0942927 
   1.0796868 
    1.078021 
   1.0784944 
   1.0880054 
   1.0805221 
   1.0962415 
   1.0890074 
   1.0836405 
   1.0970877 
   1.0719048 
   1.0752603 
   1.0706324 
   1.0701863 
   1.0772678 
   1.0831322 
   1.0720809 
   1.0721388 
   1.0813538 
     1.08689 
   1.0814428 
   1.0703256 
   1.0905089 
   1.0689171 
   1.0763871 
    1.071935 
Loop time of 5265.37 on 128 procs for 5000000 steps with 3072 atoms

Performance: 164.091 ns/day, 0.146 hours/ns, 949.601 timesteps/s
99.3% CPU use with 128 MPI tasks x no OpenMP threads

MPI task timing breakdown:
Section |  min time  |  avg time  |  max time  |%varavg| %total
---------------------------------------------------------------
Pair    | 1152.5     | 1389.2     | 1603.7     | 294.2 | 26.38
Bond    | 0.47101    | 0.57753    | 1.1343     |  12.4 |  0.01
Kspace  | 2134       | 2341.3     | 2555.7     | 219.7 | 44.47
Neigh   | 142.39     | 146.57     | 150.48     |  27.4 |  2.78
Comm    | 546.54     | 610.98     | 687.54     | 136.6 | 11.60
Output  | 0.017843   | 0.023365   | 0.041878   |   2.4 |  0.00
Modify  | 587.36     | 691.6      | 740.68     | 135.2 | 13.13
Other   |            | 85.08      |            |       |  1.62

Nlocal:    24 ave 33 max 16 min
Histogram: 4 7 21 12 30 25 12 10 4 3
Nghost:    2887.41 ave 2925 max 2855 min
Histogram: 12 12 15 9 20 17 16 13 10 4
Neighs:    8972.55 ave 12698 max 5437 min
Histogram: 3 6 14 20 25 20 24 9 4 3

Total # of neighbors = 1148486
Ave neighs/atom = 373.856
Ave special neighs/atom = 1.95312
Neighbor list builds = 437193
Dangerous builds = 0
Changing box ...
  orthogonal box = (0.563925 0.563925 0.563925) to (32.2497 32.3335 32.3335)
  orthogonal box = (0.563925 0.563925 0.563925) to (32.2497 32.2497 32.3335)
  orthogonal box = (0.563925 0.563925 0.563925) to (32.2497 32.2497 32.2497)
PPPM initialization ...
  extracting TIP4P info from pair style
  using 12-bit tables for long-range coulomb (../kspace.cpp:321)
  G vector (1/distance) = 0.311204
  grid = 30 30 30
  stencil order = 5
  estimated absolute RMS force accuracy = 0.00354789
  estimated relative force accuracy = 1.06844e-05
  using double precision FFTs
  3d grid and FFT values/proc = 2475 256
Setting up Verlet run ...
  Unit style    : real
  Current step  : 0
  Time step     : 0.001
Per MPI rank memory allocation (min/avg/max) = 8.201 | 8.212 | 8.219 Mbytes
Density 
     1.08046 
     1.08046 
Loop time of 8.03233 on 128 procs for 10000 steps with 3072 atoms

Performance: 0.108 ns/day, 223.120 hours/ns, 1244.968 timesteps/s
99.4% CPU use with 128 MPI tasks x no OpenMP threads

MPI task timing breakdown:
Section |  min time  |  avg time  |  max time  |%varavg| %total
---------------------------------------------------------------
Pair    | 1.2735     | 2.0743     | 3.1044     |  25.7 | 25.82
Bond    | 0.00069533 | 0.00083146 | 0.0012987  |   0.0 |  0.01
Kspace  | 3.098      | 4.0555     | 4.8387     |  17.9 | 50.49
Neigh   | 0          | 0          | 0          |   0.0 |  0.00
Comm    | 0.98378    | 1.0896     | 1.1579     |   3.5 | 13.57
Output  | 2.7361e-05 | 3.5509e-05 | 0.00012725 |   0.0 |  0.00
Modify  | 0.63511    | 0.70258    | 0.7554     |   3.6 |  8.75
Other   |            | 0.1095     |            |       |  1.36

Nlocal:    24 ave 34 max 16 min
Histogram: 3 7 25 16 20 27 18 6 5 1
Nghost:    2903.53 ave 2948 max 2868 min
Histogram: 12 10 15 16 20 14 23 10 5 3
Neighs:    9044.44 ave 13258 max 5747 min
Histogram: 5 12 19 17 21 25 17 8 3 1

Total # of neighbors = 1157688
Ave neighs/atom = 376.852
Ave special neighs/atom = 1.95312
Neighbor list builds = 0
Dangerous builds = 0
PPPM initialization ...
  extracting TIP4P info from pair style
  using 12-bit tables for long-range coulomb (../kspace.cpp:321)
  G vector (1/distance) = 0.311204
  grid = 30 30 30
  stencil order = 5
  estimated absolute RMS force accuracy = 0.00354789
  estimated relative force accuracy = 1.06844e-05
  using double precision FFTs
  3d grid and FFT values/proc = 2475 256
Setting up Verlet run ...
  Unit style    : real
  Current step  : 10000
  Time step     : 0.01
Per MPI rank memory allocation (min/avg/max) = 8.201 | 8.212 | 8.219 Mbytes
Density 
     1.08046 
     1.08046 
Loop time of 10.6345 on 128 procs for 10000 steps with 3072 atoms

Performance: 0.812 ns/day, 29.540 hours/ns, 940.332 timesteps/s
99.2% CPU use with 128 MPI tasks x no OpenMP threads

MPI task timing breakdown:
Section |  min time  |  avg time  |  max time  |%varavg| %total
---------------------------------------------------------------
Pair    | 1.1873     | 2.0826     | 2.8742     |  25.2 | 19.58
Bond    | 0.00071191 | 0.00083316 | 0.0012586  |   0.0 |  0.01
Kspace  | 5.2151     | 5.994      | 6.9054     |  14.9 | 56.36
Neigh   | 0.0012738  | 0.030891   | 0.032884   |   4.3 |  0.29
Comm    | 1.2695     | 1.4145     | 1.5139     |   4.2 | 13.30
Output  | 2.6971e-05 | 3.77e-05   | 6.914e-05  |   0.0 |  0.00
Modify  | 0.91117    | 0.98107    | 1.036      |   3.2 |  9.23
Other   |            | 0.1306     |            |       |  1.23

Nlocal:    24 ave 33 max 16 min
Histogram: 2 10 21 14 21 29 8 18 3 2
Nghost:    2903.36 ave 2944 max 2860 min
Histogram: 1 4 17 17 26 21 13 15 10 4
Neighs:    9041.88 ave 13251 max 5877 min
Histogram: 9 12 9 21 35 14 19 5 2 2

Total # of neighbors = 1157360
Ave neighs/atom = 376.745
Ave special neighs/atom = 1.95312
Neighbor list builds = 4
Dangerous builds = 0
PPPM initialization ...
  extracting TIP4P info from pair style
  using 12-bit tables for long-range coulomb (../kspace.cpp:321)
  G vector (1/distance) = 0.311204
  grid = 30 30 30
  stencil order = 5
  estimated absolute RMS force accuracy = 0.00354789
  estimated relative force accuracy = 1.06844e-05
  using double precision FFTs
  3d grid and FFT values/proc = 2475 256
Setting up Verlet run ...
  Unit style    : real
  Current step  : 20000
  Time step     : 0.1
Per MPI rank memory allocation (min/avg/max) = 8.201 | 8.212 | 8.219 Mbytes
Density 
     1.08046 
     1.08046 
Loop time of 8.43018 on 128 procs for 10000 steps with 3072 atoms

Performance: 10.249 ns/day, 2.342 hours/ns, 1186.214 timesteps/s
99.4% CPU use with 128 MPI tasks x no OpenMP threads

MPI task timing breakdown:
Section |  min time  |  avg time  |  max time  |%varavg| %total
---------------------------------------------------------------
Pair    | 1.2233     | 2.0817     | 2.829      |  20.9 | 24.69
Bond    | 0.00071092 | 0.00083558 | 0.0013459  |   0.0 |  0.01
Kspace  | 3.4459     | 4.2699     | 5.1116     |  14.2 | 50.65
Neigh   | 0.013828   | 0.013965   | 0.014171   |   0.1 |  0.17
Comm    | 1.0499     | 1.1703     | 1.4108     |   6.4 | 13.88
Output  | 2.5648e-05 | 3.4779e-05 | 7.1334e-05 |   0.0 |  0.00
Modify  | 0.66209    | 0.78364    | 0.8506     |   5.5 |  9.30
Other   |            | 0.1099     |            |       |  1.30

Nlocal:    24 ave 31 max 13 min
Histogram: 1 1 6 7 9 38 23 24 12 7
Nghost:    2908.98 ave 2961 max 2873 min
Histogram: 9 17 19 25 14 15 14 9 4 2
Neighs:    9041.7 ave 12088 max 5263 min
Histogram: 3 3 5 14 25 25 19 21 9 4

Total # of neighbors = 1157338
Ave neighs/atom = 376.738
Ave special neighs/atom = 1.95312
Neighbor list builds = 44
Dangerous builds = 0
PPPM initialization ...
  extracting TIP4P info from pair style
  using 12-bit tables for long-range coulomb (../kspace.cpp:321)
  G vector (1/distance) = 0.311204
  grid = 30 30 30
  stencil order = 5
  estimated absolute RMS force accuracy = 0.00354789
  estimated relative force accuracy = 1.06844e-05
  using double precision FFTs
  3d grid and FFT values/proc = 2475 256
Setting up Verlet run ...
  Unit style    : real
  Current step  : 30000
  Time step     : 0.2
Per MPI rank memory allocation (min/avg/max) = 8.201 | 8.212 | 8.219 Mbytes
Density 
     1.08046 
     1.08046 
Loop time of 7.78654 on 128 procs for 10000 steps with 3072 atoms

Performance: 22.192 ns/day, 1.081 hours/ns, 1284.268 timesteps/s
99.4% CPU use with 128 MPI tasks x no OpenMP threads

MPI task timing breakdown:
Section |  min time  |  avg time  |  max time  |%varavg| %total
---------------------------------------------------------------
Pair    | 1.5606     | 2.0904     | 2.7305     |  16.7 | 26.85
Bond    | 0.00071276 | 0.00082649 | 0.0012377  |   0.0 |  0.01
Kspace  | 3.1552     | 3.7829     | 4.3036     |  12.1 | 48.58
Neigh   | 0.027335   | 0.027683   | 0.02801    |   0.1 |  0.36
Comm    | 0.98698    | 1.0751     | 1.1378     |   3.4 | 13.81
Output  | 3.4704e-05 | 4.2772e-05 | 0.00011424 |   0.0 |  0.00
Modify  | 0.63296    | 0.70129    | 0.75349    |   3.6 |  9.01
Other   |            | 0.1083     |            |       |  1.39

Nlocal:    24 ave 32 max 13 min
Histogram: 1 0 4 10 29 27 28 18 9 2
Nghost:    2898.87 ave 2940 max 2865 min
Histogram: 4 8 20 20 23 22 15 9 4 3
Neighs:    9038.12 ave 13112 max 4959 min
Histogram: 1 1 10 18 29 37 25 5 1 1

Total # of neighbors = 1156879
Ave neighs/atom = 376.588
Ave special neighs/atom = 1.95312
Neighbor list builds = 88
Dangerous builds = 0
PPPM initialization ...
  extracting TIP4P info from pair style
  using 12-bit tables for long-range coulomb (../kspace.cpp:321)
  G vector (1/distance) = 0.311204
  grid = 30 30 30
  stencil order = 5
  estimated absolute RMS force accuracy = 0.00354789
  estimated relative force accuracy = 1.06844e-05
  using double precision FFTs
  3d grid and FFT values/proc = 2475 256
Setting up Verlet run ...
  Unit style    : real
  Current step  : 40000
  Time step     : 0.5
Per MPI rank memory allocation (min/avg/max) = 8.201 | 8.212 | 8.219 Mbytes
Density 
     1.08046 
     1.08046 
Loop time of 8.21835 on 128 procs for 10000 steps with 3072 atoms

Performance: 52.565 ns/day, 0.457 hours/ns, 1216.789 timesteps/s
99.4% CPU use with 128 MPI tasks x no OpenMP threads

MPI task timing breakdown:
Section |  min time  |  avg time  |  max time  |%varavg| %total
---------------------------------------------------------------
Pair    | 1.5201     | 2.1087     | 2.653      |  14.9 | 25.66
Bond    | 0.00070852 | 0.00082929 | 0.0012973  |   0.0 |  0.01
Kspace  | 3.4428     | 3.9868     | 4.5708     |  10.7 | 48.51
Neigh   | 0.067713   | 0.068498   | 0.06908    |   0.1 |  0.83
Comm    | 1.0414     | 1.137      | 1.195      |   3.5 | 13.84
Output  | 3.4725e-05 | 4.5051e-05 | 8.8135e-05 |   0.0 |  0.00
Modify  | 0.73062    | 0.79352    | 0.8618     |   3.7 |  9.66
Other   |            | 0.1229     |            |       |  1.50

Nlocal:    24 ave 32 max 16 min
Histogram: 1 3 11 31 11 30 27 7 5 2
Nghost:    2896.44 ave 2922 max 2869 min
Histogram: 6 9 5 22 15 22 21 10 11 7
Neighs:    9045.09 ave 12488 max 5952 min
Histogram: 4 6 17 20 25 19 22 8 5 2

Total # of neighbors = 1157772
Ave neighs/atom = 376.879
Ave special neighs/atom = 1.95312
Neighbor list builds = 218
Dangerous builds = 0
PPPM initialization ...
  extracting TIP4P info from pair style
  using 12-bit tables for long-range coulomb (../kspace.cpp:321)
  G vector (1/distance) = 0.311204
  grid = 30 30 30
  stencil order = 5
  estimated absolute RMS force accuracy = 0.00354789
  estimated relative force accuracy = 1.06844e-05
  using double precision FFTs
  3d grid and FFT values/proc = 2475 256
Setting up Verlet run ...
  Unit style    : real
  Current step  : 0
  Time step     : 2
Per MPI rank memory allocation (min/avg/max) = 8.201 | 8.212 | 8.219 Mbytes
Density 
     1.08046 
     1.08046 
     1.08046 
     1.08046 
     1.08046 
     1.08046 
     1.08046 
     1.08046 
     1.08046 
     1.08046 
     1.08046 
Loop time of 85.0654 on 128 procs for 100000 steps with 3072 atoms

Performance: 203.138 ns/day, 0.118 hours/ns, 1175.566 timesteps/s
99.4% CPU use with 128 MPI tasks x no OpenMP threads

MPI task timing breakdown:
Section |  min time  |  avg time  |  max time  |%varavg| %total
---------------------------------------------------------------
Pair    | 17.936     | 21.52      | 24.583     |  37.2 | 25.30
Bond    | 0.0072492  | 0.0083246  | 0.012621   |   1.0 |  0.01
Kspace  | 36.427     | 39.536     | 43.222     |  27.7 | 46.48
Neigh   | 2.8751     | 2.9345     | 2.9648     |   1.1 |  3.45
Comm    | 11.063     | 11.938     | 12.668     |  10.8 | 14.03
Output  | 0.00032965 | 0.00041219 | 0.00094587 |   0.0 |  0.00
Modify  | 6.738      | 7.4417     | 7.9479     |  11.4 |  8.75
Other   |            | 1.687      |            |       |  1.98

Nlocal:    24 ave 33 max 16 min
Histogram: 3 7 21 11 27 29 16 10 2 2
Nghost:    2895.88 ave 2922 max 2862 min
Histogram: 1 1 9 10 27 21 27 18 9 5
Neighs:    9042.47 ave 13324 max 5515 min
Histogram: 3 8 13 25 29 27 13 6 2 2

Total # of neighbors = 1157436
Ave neighs/atom = 376.77
Ave special neighs/atom = 1.95312
Neighbor list builds = 8667
Dangerous builds = 0
WARNING: New thermo_style command, previous thermo_modify settings will be lost (../output.cpp:705)
PPPM initialization ...
  extracting TIP4P info from pair style
  using 12-bit tables for long-range coulomb (../kspace.cpp:321)
  G vector (1/distance) = 0.311204
  grid = 30 30 30
  stencil order = 5
  estimated absolute RMS force accuracy = 0.00354789
  estimated relative force accuracy = 1.06844e-05
  using double precision FFTs
  3d grid and FFT values/proc = 2475 256
Setting up Verlet run ...
  Unit style    : real
  Current step  : 0
  Time step     : 2
[...]
98190000    305.33004    298.09018    188.22952    21.378552   -15063.542     1884.881   -13178.661 
98200000      292.485    297.67856     208.2931   -47.265871    -15047.69    1805.5853   -13242.104 
98210000    290.98509    297.78775    556.31327   -18.815583   -15090.918    1796.3259   -13294.592 
98220000     314.2987    297.83476   -535.13189    19.225343   -15034.274    1940.2468   -13094.027 
98230000    306.34691     297.8787   -759.30121   -108.12631   -15081.465    1891.1584   -13190.306 
98240000    300.86865    297.84182   -731.96036   -25.772453   -15010.144    1857.3397   -13152.805 
98250000    296.94362    298.06985    6.4789028   -16.292469   -15049.843    1833.1095   -13216.733 
98260000    294.75338    298.00418   -6.1782292    20.754037   -15063.742    1819.5886   -13244.154 
98270000    302.51114    298.00964   -575.49148   -54.860053   -15073.221    1867.4792   -13205.742 
98280000    299.42267    298.17866   -435.72508   -57.039965   -15003.339    1848.4133   -13154.926 
98290000    298.58297     298.3637   -417.81094    57.941326   -15091.486    1843.2296   -13248.256 
98300000    291.45989    298.30797    116.71596   -33.302401    -14980.69     1799.257   -13181.433 
98310000    304.78503    298.18369    375.43375    -13.77258    -15081.72    1881.5165   -13200.203 
98320000     308.5926    297.95891    155.01665    1.4703577   -15085.229    1905.0216   -13180.208 
98330000    298.42468     298.0224   -85.635254   -54.265489    -15068.49    1842.2525   -13226.238 
98340000    300.15966    298.16735    223.93429    45.770498   -14972.874    1852.9629   -13119.911 
98350000    310.41781    298.23124    93.500188   -16.589905   -15065.735    1916.2891   -13149.446 
98360000     307.3435    297.61268     224.4245    45.524308   -15092.994    1897.3106   -13195.683 
98370000    291.87846    298.82348   -211.20497   -84.463128   -14939.714    1801.8409   -13137.873 
98380000    302.22647    298.19098   -875.94318    53.613046   -15075.033    1865.7218   -13209.311 
98390000    294.22161    297.89633    388.57402   -40.593168   -15089.405    1816.3058   -13273.099 
98400000     300.7691    298.21516    740.35143   -85.036852   -14912.878    1856.7252   -13056.153 
98410000    310.02282    298.00249     533.6291   -7.7515867   -15096.674    1913.8507   -13182.823 
98420000    296.67051    297.72941   -12.979656    32.950888   -15049.502    1831.4235   -13218.079 
98430000    295.93692    298.00338   -199.72716   -25.334148   -15120.781    1826.8949   -13293.886 
98440000    299.60584    297.88285    384.53887   -38.166302   -14969.005    1849.5441   -13119.461 
98450000    298.21955    298.27934   -409.37395   -60.557694   -15017.325    1840.9861   -13176.339 
98460000    304.25217    298.70295   -709.45235    16.951156   -15007.769     1878.227   -13129.542 
98470000    291.34894    298.35858    -534.2886   -63.124133   -15043.324    1798.5721   -13244.752 
98480000    292.04044    298.00866    326.17264   -54.476427   -15082.927    1802.8409   -13280.087 
98490000    295.60473     298.2184    629.72484    19.059898   -15117.757    1824.8441   -13292.912 
98500000    308.28901    298.08083     129.0617   -83.892196   -15041.407    1903.1475    -13138.26 
98510000    295.05992     298.3637    554.31764    77.306751     -15082.8    1821.4809    -13261.32 
98520000    290.62697    297.89926    885.34932   -25.815319   -14990.356    1794.1152   -13196.241 
98530000     297.3922    298.54001   -213.99076    52.689672   -15012.028    1835.8787   -13176.149 
98540000    303.82056    298.41602    460.51482     16.78614    -15026.93    1875.5626   -13151.367 
98550000    292.36134    297.91411   -603.43234   -14.931927   -15031.716    1804.8219   -13226.894 
98560000    304.14594    297.78225    21.935362   -66.765552   -15023.125    1877.5712   -13145.554 
98570000    292.94101    297.28766     17.52875    -11.55474   -14987.982    1808.4003   -13179.582 
98580000    300.06948    297.86824   -38.617702   -65.312841    -15135.84    1852.4062   -13283.434 
98590000    298.84907    297.99231    303.70937    29.626511   -15082.188    1844.8723   -13237.316 
98600000    294.17394    297.24716    98.631653    43.689274     -15123.8    1816.0115   -13307.788 
98610000     296.2629    297.96405   -928.45568    139.30887    -15083.92    1828.9072   -13255.013 
98620000    300.80423    297.93712    259.39876    19.117027   -15120.884     1856.942   -13263.942 
98630000    298.55222    297.91704    82.089839    1.0453115   -14986.972    1843.0398   -13143.933 
98640000    295.47996    298.12856   -347.09904   -42.144209   -15059.034    1824.0739    -13234.96 
98650000    296.71546    297.94258    116.81327   -5.6027476   -15035.361     1831.701    -13203.66 
98660000     289.1388    298.02238    62.106343    15.205009   -15039.121    1784.9283   -13254.193 
98670000    296.95868    298.04509    296.65811   -131.82306   -15015.804    1833.2024   -13182.602 
98680000    300.36966    297.85443    43.738116   -6.3039179   -15062.303    1854.2593   -13208.044 
98690000    296.53308    297.29962    36.344643   -36.435542   -15052.346    1830.5751   -13221.771 
98700000    302.30456    297.71245    530.42422    78.455613   -15061.504    1866.2039     -13195.3 
98710000    299.09298    297.68427    91.752925    -111.6681   -14956.946     1846.378   -13110.568 
98720000    296.84292     298.1661   -503.18373    2.2157835   -15012.436    1832.4878   -13179.949 
98730000    300.29854    298.00623     198.9641   -65.514536   -14962.342    1853.8202   -13108.521 
98740000    289.59877    298.43176   -372.03876   -97.585522   -14970.012    1787.7678   -13182.244 
98750000    298.17339    298.14907    -128.4154    37.130456   -15051.585    1840.7011   -13210.884 
98760000    305.74293    297.94848   -457.86214   -61.422982   -15059.555    1887.4299   -13172.125 
98770000    291.93129    298.13251   -139.30598     78.41055   -15009.266    1802.1671   -13207.099 
98780000    300.75033    298.61652    205.03876    12.751881    -15000.64    1856.6093   -13144.031 
98790000    292.75791    297.74582    -217.4499   -54.521888   -15086.983      1807.27   -13279.713 
98800000    299.40134    298.07575    149.86986   -39.157082   -15075.909    1848.2816   -13227.627 
98810000    290.03167    297.77758    97.241877    84.935572   -15061.782    1790.4402   -13271.342 
98820000    298.98516    297.96556    320.01107    30.228554   -14968.996    1845.7124   -13123.284 
98830000     288.3133     297.8443    -592.2181   -53.622701   -15062.808    1779.8323   -13282.975 
98840000    307.53796    297.58736    569.65132    8.5252492   -15036.093    1898.5111   -13137.582 
98850000    301.25464    297.60843    -429.1824    16.863439   -15021.079    1859.7225   -13161.357 
98860000    290.65415     298.2036   -44.792076    105.92088   -15040.405     1794.283   -13246.122 
98870000    293.79948    297.74999   -129.36498     67.38356   -15059.328    1813.6999   -13245.629 
98880000    306.49903    298.16121    663.53991    7.1971157   -15035.959    1892.0974   -13143.862 
98890000    305.47898    298.27975   -87.919184    90.057858   -15023.027    1885.8005   -13137.227 
98900000    298.40258    298.31488     236.9696    37.748008   -15006.684     1842.116   -13164.568 
98910000    294.77353    297.92939    -361.3476    45.963025   -15048.121    1819.7129   -13228.408 
98920000    298.64327    297.95659    375.43525   -58.189842   -15016.608    1843.6018   -13173.006 
98930000    297.99397    298.07251   -382.04573   -35.676968   -15018.244    1839.5935   -13178.651 
98940000    288.70241    298.53512    481.60314    20.727843   -15042.182    1782.2343   -13259.947 
98950000    293.38121    297.80323   -440.87871    51.173255    -15034.16    1811.1178   -13223.042 
98960000        298.5     298.1603    233.58578    14.142716   -15036.243    1842.7174   -13193.525 
98970000    294.79518    297.59628   -457.26822   -3.5823137   -15040.742    1819.8466   -13220.895 
98980000    300.55834    298.24327    442.08736    14.074035    -14975.08    1855.4241   -13119.656 
98990000     298.4612    298.23034    322.90468   -20.434945   -15048.637    1842.4779   -13206.159 
99000000     292.7569    298.12785    493.68918    5.1808253    -15099.07    1807.2638   -13291.807 
99010000    288.32156    297.79274    -458.2554    25.118668    -15086.57    1779.8833   -13306.687 
99020000    291.26029    297.85828   -510.74723   -52.562428   -15020.629    1798.0248   -13222.604 
99030000    296.06654    297.56725   -284.75293    5.9213956   -14923.443     1827.695   -13095.748 
99040000     292.7043      298.206    51.815019   -46.594764   -15034.093     1806.939   -13227.154 
99050000    295.01168    297.92217   -46.408601   -23.668414   -15084.513    1821.1831    -13263.33 
99060000    300.78777    298.13905   -89.448347    112.04383   -15003.332    1856.8404   -13146.491 
99070000     292.3697    298.02978    704.71843   -18.627251   -15051.757    1804.8735   -13246.884 
99080000    298.11687    298.11356   -32.926714   -6.2301757   -15040.731    1840.3523   -13200.379 
99090000    292.67355    298.24487    320.60091   -7.0770292   -15073.676    1806.7492   -13266.926 
99100000    287.54626    297.77905     223.2133   -10.906997   -15040.974    1775.0972   -13265.877 
99110000    302.96206    298.38264    28.707336    19.917609   -14940.249    1870.2629   -13069.986 
99120000    298.14799    298.60047   -566.95691   -20.258564   -15111.951    1840.5443   -13271.407 
99130000    299.78238    297.89654   -394.06103   -43.714707    -15048.07    1850.6339   -13197.436 
99140000     300.8762    297.84247  -0.48827871    47.066192   -15031.539    1857.3863   -13174.153 
99150000    293.19957    297.93003   -163.03513    26.467286   -15095.631    1809.9965   -13285.634 
99160000    298.48986    297.69958   -54.571528    2.3516561    -14935.48    1842.6548   -13092.825 
99170000    300.24296    297.94991     28.59139    34.315944   -15100.906    1853.4772   -13247.429 
99180000    290.70023    298.53268    -317.2687   -37.768266   -15100.936    1794.5674   -13306.369 
99190000    289.68178    298.07039    244.78892   -8.5256322   -15006.439    1788.2803   -13218.159 
99200000    297.06866    298.26269    -654.3328   -90.561967   -15118.555    1833.8814   -13284.674 
99210000    292.92619    298.43689   -75.194127   -36.760714   -15022.901    1808.3088   -13214.592 
99220000    307.43794    298.11834   -264.60576   -2.3110645   -15004.576    1897.8936   -13106.683 
99230000    294.09746    297.44314     136.2118   -21.559821   -15081.898    1815.5394   -13266.359 
99240000    300.78811    297.48909   -589.47457   -5.8410049   -15047.629    1856.8425   -13190.787 
99250000    294.76727    297.85546   -9.5379117     42.52674   -15159.585    1819.6743    -13339.91 
99260000     304.2041    298.10268   -444.09334   -8.0906184   -15027.114    1877.9303   -13149.184 
99270000    301.63794    297.73534    433.51688    28.897402   -14985.844    1862.0887   -13123.755 
99280000    301.53573    298.20493    257.02844    61.141522   -14999.352    1861.4577   -13137.894 
99290000     286.4541    298.20002   -232.67201   -16.933792   -15077.352     1768.355   -13308.997 
99300000    299.32847    297.35169    318.76449    59.807495   -15013.278    1847.8317   -13165.446 
99310000    296.46243    298.43262   -468.63747    58.465519   -15042.005    1830.1389   -13211.866 
99320000    297.49638    298.34131    59.168571   -56.024799   -14974.096    1836.5218   -13137.574 
99330000    304.61819    297.99942    484.60898    -43.64139   -15028.726    1880.4866   -13148.239 
99340000    295.20877     298.5775     222.1912    -51.17257   -14965.159    1822.3998   -13142.759 
99350000    307.67865    298.09004   -212.41566    40.701383   -15032.543    1899.3796   -13133.163 
99360000    291.86792    297.86406   -40.360936   -26.299263   -15082.482    1801.7758   -13280.707 
99370000    307.74436    297.98959    625.09643   -46.596192   -15046.895    1899.7852    -13147.11 
99380000    294.41566    298.29253   -376.67303   -24.155183   -14962.014    1817.5037    -13144.51 
99390000    282.64085    297.65481    418.21353   -41.747621   -15102.903    1744.8148   -13358.088 
99400000    290.08356     297.8164    202.45687    31.014434    -14975.43    1790.7605    -13184.67 
99410000    292.92637    297.94727    644.59917   -26.827944    -14961.95      1808.31    -13153.64 
99420000    298.26512     298.1855    256.36545    -3.984309     -14980.6    1841.2674   -13139.333 
99430000    285.44827     297.8811    564.52958   -22.651729   -15114.822    1762.1457   -13352.676 
99440000    296.20719    297.95153    -212.7149    -12.31172   -14956.295    1828.5633   -13127.732 
99450000    299.80281    298.20962    -42.94177   -28.022582   -15049.376      1850.76   -13198.616 
99460000    297.65138    297.69658    60.868746   -59.306985   -14932.428    1837.4787    -13094.95 
99470000    297.12685    297.86516   -365.40845   -3.9916312   -15030.494    1834.2406   -13196.254 
99480000      286.257    298.13406    -239.8679   -50.138699   -15028.009    1767.1382    -13260.87 
99490000    302.32369     298.1179    102.40028    51.064485   -15085.733     1866.322   -13219.411 
99500000    302.08727    298.24085   -143.13307    41.828921   -15062.728    1864.8625   -13197.865 
99510000    293.72348    298.29622   -705.56155   -30.338607   -14952.359    1813.2307   -13139.129 
99520000     303.6876    298.22817   -300.93361     57.44032   -15068.286    1874.7418   -13193.545 
99530000    302.03061    298.49108    143.38568   -28.880577   -15061.879    1864.5128   -13197.366 
99540000    293.76645    298.32884   -445.16869   -40.110302   -14975.893     1813.496   -13162.397 
99550000     302.0719    297.60541   -287.74808    27.928178   -15106.179    1864.7677   -13241.412 
99560000    290.47194    297.83622    175.60393   -28.623241   -15055.565    1793.1581   -13262.407 
99570000    300.17124    298.39127    150.05382    49.729563   -15148.392    1853.0344   -13295.358 
99580000    293.80298    298.57656   -20.371393    53.799328   -15060.653    1813.7215   -13246.932 
99590000    304.44516    298.05023    666.52648     92.72331   -15047.406    1879.4184   -13167.988 
99600000    293.67045    298.16592   -146.70519   -89.838655   -15031.635    1812.9034   -13218.731 
99610000    291.16526     297.7832    497.26144    13.700161   -15120.532    1797.4382   -13323.094 
99620000    303.10064    297.86633    156.85561   -56.939866   -15131.047    1871.1183   -13259.929 
99630000     292.3278    297.80641    15.323716    40.376681   -15099.969    1804.6148   -13295.355 
99640000    300.49858    298.27792   -1160.9791    85.678929   -15012.294    1855.0552   -13157.239 
99650000    296.41261    298.09833    177.16524   -1.6977191   -15081.719    1829.8314   -13251.887 
99660000    303.35103    298.23814   -448.70966    25.153042   -15056.674    1872.6641    -13184.01 
99670000     288.1009    297.87641    136.92505   0.74849877   -15104.711     1778.521    -13326.19 
99680000    301.59249    297.93898    6.0982406    -18.53874   -15031.453    1861.8081   -13169.645 
99690000    293.84889    297.97814    625.36403    25.071037   -15160.547    1814.0049   -13346.542 
99700000    290.50925    297.69608    488.43048     94.93867   -15079.941    1793.3884   -13286.552 
99710000    302.48038    297.85711   -581.54903   -40.627379   -15027.859    1867.2893    -13160.57 
99720000    299.98894    298.27801     222.5663    42.165199   -15050.642     1851.909   -13198.733 
99730000    295.63987    298.02743   -403.74046   -21.408704   -14955.204     1825.061   -13130.143 
99740000    297.89776      298.157    51.235763     45.82172   -15070.369    1838.9996   -13231.369 
99750000     295.1329    298.32234     137.3767    -145.5402   -15048.333    1821.9314   -13226.402 
99760000    294.26667    297.70303   -116.64147   -57.709768   -14947.973     1816.584   -13131.389 
99770000    292.80102    298.19992    198.64605    26.593007   -15080.111    1807.5361   -13272.575 
99780000    301.04095    298.03497    696.05611   -25.463697   -15027.205    1858.4033   -13168.801 
99790000     302.0415    298.36047   -477.29435    42.440602   -15077.415      1864.58   -13212.835 
99800000    305.24829    298.34976    484.80266   -17.193631    -15022.43    1884.3763   -13138.054 
99810000    293.69761    297.45559   -280.37511   -19.950163   -14986.536     1813.071   -13173.465 
99820000    296.75063    297.93373    309.18915   -46.860628   -15001.987    1831.9181   -13170.068 
99830000    293.56096    298.17605   -84.311118   -2.8314325   -15059.926    1812.2274   -13247.698 
99840000    290.71869     298.2227   -409.90449    43.628369    -15019.11    1794.6814   -13224.428 
99850000    304.67034    297.75387   -110.05587   -19.185264    -15066.54    1880.8085   -13185.731 
99860000    301.17876    297.42961   -487.25265    76.724597   -15052.041    1859.2541   -13192.787 
99870000     292.8498     298.5615    113.98586   -6.2343563   -14994.118    1807.8372    -13186.28 
99880000    301.37574    298.34816    132.03429   -3.1180821   -14995.443    1860.4701   -13134.973 
99890000    295.62547    297.89168   -276.85671    13.268771   -15065.582    1824.9722    -13240.61 
99900000    298.40772    297.61218    92.890611    55.904561   -15065.291    1842.1477   -13223.143 
99910000    292.28408    297.86826   -210.09489   -46.441751   -15117.559    1804.3449   -13313.214 
99920000    290.95816    297.64786   -682.45211   -13.946611   -15047.053    1796.1597   -13250.893 
99930000    296.01274    298.54221   -555.24683   -31.486554   -15010.695    1827.3629   -13183.332 
99940000    300.69388    298.00906   -303.97597    -3.126636   -15001.278    1856.2608   -13145.017 
99950000    292.27916    298.05157   -127.48796     23.44733   -14941.346    1804.3146   -13137.031 
99960000    302.02702    298.24096    445.81954   -3.7350338   -15000.511    1864.4906    -13136.02 
99970000    289.02172    298.51828    -45.02901    13.493625   -15083.938    1784.2055   -13299.732 
99980000    303.19959     297.6475    227.40672   -15.841287   -15107.071    1871.7292   -13235.342 
99990000    292.99769    298.19022   -623.40946    24.721575   -14997.133    1808.7502   -13188.382 
100000000    291.06612    297.82318    447.81774    -3.937599   -15117.928    1796.8261   -13321.102 
Loop time of 92241.9 on 128 procs for 100000000 steps with 3072 atoms

Performance: 187.333 ns/day, 0.128 hours/ns, 1084.106 timesteps/s
99.3% CPU use with 128 MPI tasks x no OpenMP threads

MPI task timing breakdown:
Section |  min time  |  avg time  |  max time  |%varavg| %total
---------------------------------------------------------------
Pair    | 19558      | 23275      | 26448      |1151.2 | 25.23
Bond    | 8.4542     | 9.8659     | 15.198     |  33.3 |  0.01
Kspace  | 39210      | 42534      | 46296      | 856.1 | 46.11
Neigh   | 2916.2     | 2943.8     | 2964.7     |  23.9 |  3.19
Comm    | 11497      | 12354      | 13105      | 334.8 | 13.39
Output  | 3.8059     | 87.092     | 103        | 169.8 |  0.09
Modify  | 8975.1     | 9530.8     | 10122      | 325.4 | 10.33
Other   |            | 1508       |            |       |  1.63

Nlocal:    24 ave 30 max 16 min
Histogram: 3 3 8 10 11 39 16 21 8 9
Nghost:    2888.99 ave 2923 max 2843 min
Histogram: 3 5 5 10 15 20 31 26 10 3
Neighs:    9042.62 ave 12393 max 5363 min
Histogram: 2 4 13 16 19 30 16 18 7 3

Total # of neighbors = 1157456
Ave neighs/atom = 376.776
Ave special neighs/atom = 1.95312
Neighbor list builds = 8661642
Dangerous builds = 0

JOB STATISTICS
==============
Job ID: 2423589
Cluster: snellius
User/Group: phabibi/phabibi
State: COMPLETED (exit code 0)
Nodes: 1
Cores per node: 128
CPU Utilized: 151-14:30:49
CPU Efficiency: 99.32% of 152-15:30:08 core-walltime
Job Wall-clock time: 1-04:37:16
Memory Utilized: 21.23 GB (estimated maximum)
Memory Efficiency: 9.48% of 224.00 GB (1.75 GB/core)
