LAMMPS (22 Aug 2018)
####################################################
# Transport properties of KCl in water
#  at 298 K and 1 atm.
#################### SETTING UP ####################
units real
dimension 3
newton on
boundary p p p
atom_style full

#################### VARIABLES ####################
variable Temp equal 298       # Temperature in K
variable Pres equal 1.0       # Pressure in atm.

variable RandomSeed equal 200 # The random seed for velocity
variable tstep equal 2.0      # 2fs
variable Ninptpre equal 10000 # Pre-initialize the NPT ensemble (very small timesteps)
variable Ninpt equal 5000000    # Initialize the NPT ensemble
variable Npnpt equal 5000000  # Production in the NPT ensemble (volume)
variable Ninvtpre equal 10000 # Pre-initialize the NVT ensemble (very small timesteps)
variable Ninvt equal 100000   # Initialize the NVT ensemble
variable Npnvt equal 100000   # Production in the NVT ensemble (energy)
variable Nrun equal 100000000   # production in the NVE ensemble
variable Nf equal 10000       # Nfreq (fix ave/time and thermo)
variable Ne equal  10         # Nevery (fix ave/time)
variable Nr equal ${Nf}/${Ne} # Nrepeat (fix ave/time)
variable Nr equal 10000/${Ne} 
variable Nr equal 10000/10 
variable NBR equal ${Npnpt}/50 # Block averaging for density (NPT)
variable NBR equal 5000000/50 
variable Nd equal ${Npnvt}/10 # Frequency of outputting positions of atoms in the NVT ensemble
variable Nd equal 100000/10 

variable nb equal 10          # Number of blocks (fix ordern)
variable nbe equal 20         # Number of block elements (fix ordern)
variable Nvisc equal 5        # Nevery for viscosity (fix ordern: sample data at (Nvisc*2))
variable Ncond equal 5        # Nevery for Tconductivity (fix ordern: sample data at (Ncond*2))
variable Ndiff equal 1000     # Nevery for diffusivity (fix ordern: sample data at (Ndiff))
variable Nwrit equal 100000   # Nwrite for transport properties (fix ordern: write every (Nwrit))

variable Nrdfe equal 100      # Nevery for RDF (fix ave/time)
variable Nrdfw equal 1000     # Nwrite for RDF (compute rdf/ext: write every (Nrdfw*Nrdfe))
variable binnum equal 2000    # Number of bins for RDF

#################### ATOM DEFINITION and FORCEFIELD ####################
read_data ./data.lmp                     # read the positions
  orthogonal box = (0 0 0) to (33.2616 33.2616 33.2616)
  4 by 4 by 8 MPI processor grid
  reading atoms ...
  3108 atoms
  scanning bonds ...
  2 = max bonds/atom
  scanning angles ...
  1 = max angles/atom
  reading bonds ...
  2000 bonds
  reading angles ...
  1000 angles
  2 = max # of 1-2 neighbors
  1 = max # of 1-3 neighbors
  1 = max # of 1-4 neighbors
  2 = max # of special neighbors
include ./forcefield.data                  # read the force field
#--------INTERMOLECULAR POTENTIAL -------------------#
# ---------------Developed for NaCl in water (tip4p/2005) system-----

mass 1 15.9994 # Ow
mass 2 1.00794 # Hw
mass 3 39.0983 # K
mass 4 35.4527 # Cl

pair_style lj/cut/tip4p/long 1 2 1 1 0.1546 10.0

kspace_style pppm/tip4p 1.0e-5
pair_modify tail yes # ATC i

#-----------------Combinations----------------------------
# atomtype atomtype epsilon sigma

pair_coeff 1 1 0.1851 3.1589     # Ow-Ow
pair_coeff 1 2 0.0000 0.0000     # Ow-Hw
pair_coeff 1 3 0.3347 2.89540     # Ow-K
pair_coeff 1 4 0.0148 4.07631     # Ow-Cl

pair_coeff 2 2 0.0000 0.0000     # Hw-Hw
pair_coeff 2 3 0.0000 0.0000     # Hw-K
pair_coeff 2 4 0.0000 0.0000     # Hw-Cl

pair_coeff 3 3 0.4746 2.30140     # K-K
pair_coeff 3 4 0.3346 3.41700     # K-Cl

pair_coeff 4 4 0.0184 4.69906     # Cl-Cl

bond_style  harmonic
bond_coeff 1 1000 0.9572          # Ow-Hw

angle_style harmonic
angle_coeff 1 100 104.52          # H-O-H

#dihedral_style none
#improper_style none

set type 1 charge -1.1128        # O
  1000 settings made for charge
set type 2 charge +0.5564        # OH
  2000 settings made for charge
set type 3 charge +0.7500        # K
  54 settings made for charge
set type 4 charge -0.7500        # Cl
  54 settings made for charge


#################### INITIALIZATION ####################
# groups for the central atoms of water (O)
group wat type 1      # The Oxygen of WATER molecules
1000 atoms in group wat
group K type 3
54 atoms in group K
group Cl type 4
54 atoms in group Cl

# neigbor lists
neighbor 2.0 bin
neigh_modify every 1 delay 0 check yes

# velocity-Verlet integrator
run_style verlet

# minimizing the system using the conjugate gradient method
min_style cg
min_modify dmax 0.05
minimize 1.0e-6 1.0e-6 1000 10000
PPPM initialization ...
  extracting TIP4P info from pair style
  using 12-bit tables for long-range coulomb (../kspace.cpp:321)
  G vector (1/distance) = 0.31234
  grid = 32 32 32
  stencil order = 5
  estimated absolute RMS force accuracy = 0.00308625
  estimated relative force accuracy = 9.29416e-06
  using double precision FFTs
  3d grid and FFT values/proc = 2475 256
Neighbor list info ...
  update every 1 steps, delay 0 steps, check yes
  max neighbors/atom: 2000, page size: 100000
  master list distance cutoff = 12.3092
  ghost atom cutoff = 12.3092
  binsize = 6.1546, bins = 6 6 6
  1 neighbor lists, perpetual/occasional/extra = 1 0 0
  (1) pair lj/cut/tip4p/long, perpetual
      attributes: half, newton on
      pair build: half/bin/newton
      stencil: half/bin/3d/newton
      bin: standard
Per MPI rank memory allocation (min/avg/max) = 8.194 | 8.256 | 8.457 Mbytes
Step Temp E_pair E_mol TotEng Press 
       0            0   -565.39678 3.3187846e-05   -565.39674    21269.409 
     874            0   -19468.359    375.02341   -19093.336   -4721.0405 
Loop time of 1.28936 on 128 procs for 874 steps with 3108 atoms

98.8% CPU use with 128 MPI tasks x no OpenMP threads

Minimization stats:
  Stopping criterion = energy tolerance
  Energy initial, next-to-last, final = 
        -565.396744437     -19093.3171802     -19093.3357526
  Force two-norm initial, final = 1453.42 9.20238
  Force max component initial, final = 210.658 2.72238
  Final line search alpha, max atom move = 0.0105153 0.0286266
  Iterations, force evaluations = 874 1564

MPI task timing breakdown:
Section |  min time  |  avg time  |  max time  |%varavg| %total
---------------------------------------------------------------
Pair    | 0.18273    | 0.31207    | 0.47791    |  11.1 | 24.20
Bond    | 0.0010216  | 0.001414   | 0.0018953  |   0.5 |  0.11
Kspace  | 0.55659    | 0.73106    | 0.86283    |   7.3 | 56.70
Neigh   | 0.0056064  | 0.0077563  | 0.0079731  |   0.5 |  0.60
Comm    | 0.13747    | 0.1562     | 0.17458    |   2.2 | 12.11
Output  | 0          | 0          | 0          |   0.0 |  0.00
Modify  | 0          | 0          | 0          |   0.0 |  0.00
Other   |            | 0.08086    |            |       |  6.27

Nlocal:    24.2812 ave 36 max 13 min
Histogram: 4 7 8 18 25 25 27 7 6 1
Nghost:    2603.73 ave 2678 max 2560 min
Histogram: 18 32 31 11 3 1 0 6 11 15
Neighs:    8051.4 ave 12976 max 3934 min
Histogram: 9 7 14 19 25 27 11 11 4 1

Total # of neighbors = 1030579
Ave neighs/atom = 331.589
Ave special neighs/atom = 1.9305
Neighbor list builds = 19
Dangerous builds = 0
reset_timestep 0

# initializing velocities
velocity all create ${Temp} ${RandomSeed}
velocity all create 298 ${RandomSeed}
velocity all create 298 200

# rate of writing thermal properties to the log file
thermo ${Nf}
thermo 10000

#################### 1) Initialize the NPT ensemble ####################
# applying the shake algorithm for rigid molecules and the NPT solver
fix constrain all shake 1.0e-6 1000 0 b 1 a 1
  0 = # of size 2 clusters
  0 = # of size 3 clusters
  0 = # of size 4 clusters
  1000 = # of frozen angles
fix integrate all npt temp ${Temp} ${Temp} 10.0 iso ${Pres} ${Pres} 100.0
fix integrate all npt temp 298 ${Temp} 10.0 iso ${Pres} ${Pres} 100.0
fix integrate all npt temp 298 298 10.0 iso ${Pres} ${Pres} 100.0
fix integrate all npt temp 298 298 10.0 iso 1 ${Pres} 100.0
fix integrate all npt temp 298 298 10.0 iso 1 1 100.0


# Initializing the whole system with very small timesteps in the NPT ensemble
timestep 0.001
run ${Ninptpre}
run 10000
PPPM initialization ...
  extracting TIP4P info from pair style
  using 12-bit tables for long-range coulomb (../kspace.cpp:321)
  G vector (1/distance) = 0.31234
  grid = 32 32 32
  stencil order = 5
  estimated absolute RMS force accuracy = 0.00308625
  estimated relative force accuracy = 9.29416e-06
  using double precision FFTs
  3d grid and FFT values/proc = 2475 256
Per MPI rank memory allocation (min/avg/max) = 7.944 | 8.116 | 8.208 Mbytes
Step Temp E_pair E_mol TotEng Press Volume 
       0    439.43332   -19468.359            0   -16708.469    -711122.5    36798.407 
   10000    171.91853    -17858.49            0   -16778.744    1640.3739    36635.545 
Loop time of 9.57307 on 128 procs for 10000 steps with 3108 atoms

Performance: 0.090 ns/day, 265.918 hours/ns, 1044.597 timesteps/s
99.4% CPU use with 128 MPI tasks x no OpenMP threads

MPI task timing breakdown:
Section |  min time  |  avg time  |  max time  |%varavg| %total
---------------------------------------------------------------
Pair    | 1.0626     | 2.3453     | 3.9335     |  37.2 | 24.50
Bond    | 0.00093892 | 0.0012005  | 0.0019621  |   0.7 |  0.01
Kspace  | 3.3144     | 4.9414     | 6.2488     |  26.0 | 51.62
Neigh   | 0          | 0          | 0          |   0.0 |  0.00
Comm    | 0.80077    | 0.94338    | 1.0887     |   6.9 |  9.85
Output  | 8.9877e-05 | 9.2258e-05 | 9.5898e-05 |   0.0 |  0.00
Modify  | 1.147      | 1.2152     | 1.2687     |   2.5 | 12.69
Other   |            | 0.1265     |            |       |  1.32

Nlocal:    24.2812 ave 36 max 13 min
Histogram: 4 7 8 18 25 25 27 7 6 1
Nghost:    2603.51 ave 2678 max 2560 min
Histogram: 18 33 30 12 2 1 0 6 13 13
Neighs:    8051.38 ave 12977 max 3934 min
Histogram: 9 7 14 19 25 27 11 11 4 1

Total # of neighbors = 1030577
Ave neighs/atom = 331.588
Ave special neighs/atom = 1.9305
Neighbor list builds = 0
Dangerous builds = 0
timestep 0.01
run ${Ninptpre}
run 10000
PPPM initialization ...
  extracting TIP4P info from pair style
  using 12-bit tables for long-range coulomb (../kspace.cpp:321)
  G vector (1/distance) = 0.312445
  grid = 32 32 32
  stencil order = 5
  estimated absolute RMS force accuracy = 0.00307275
  estimated relative force accuracy = 9.25349e-06
  using double precision FFTs
  3d grid and FFT values/proc = 2475 256
Per MPI rank memory allocation (min/avg/max) = 7.944 | 8.116 | 8.208 Mbytes
Step Temp E_pair E_mol TotEng Press Volume 
   10000    171.91853    -17858.49            0   -16778.744   -54682.481    36635.545 
   20000    294.24263   -16631.962            0   -14783.952    -860.8935    37245.685 
Loop time of 9.87446 on 128 procs for 10000 steps with 3108 atoms

Performance: 0.875 ns/day, 27.429 hours/ns, 1012.714 timesteps/s
99.3% CPU use with 128 MPI tasks x no OpenMP threads

MPI task timing breakdown:
Section |  min time  |  avg time  |  max time  |%varavg| %total
---------------------------------------------------------------
Pair    | 1.0411     | 2.3194     | 3.8847     |  36.3 | 23.49
Bond    | 0.00096245 | 0.0012073  | 0.0020126  |   0.7 |  0.01
Kspace  | 3.6816     | 5.2588     | 6.6147     |  24.3 | 53.26
Neigh   | 0.0011787  | 0.0012119  | 0.001245   |   0.0 |  0.01
Comm    | 0.83438    | 0.96726    | 1.098      |   6.3 |  9.80
Output  | 0.00010858 | 0.00011304 | 0.00011644 |   0.0 |  0.00
Modify  | 1.1401     | 1.2054     | 1.2547     |   2.5 | 12.21
Other   |            | 0.1211     |            |       |  1.23

Nlocal:    24.2812 ave 35 max 13 min
Histogram: 7 1 7 13 23 41 20 10 2 4
Nghost:    2577.47 ave 2653 max 2517 min
Histogram: 8 24 24 16 13 7 4 3 9 20
Neighs:    7936.3 ave 13225 max 3498 min
Histogram: 3 8 15 22 27 25 17 9 0 2

Total # of neighbors = 1015847
Ave neighs/atom = 326.849
Ave special neighs/atom = 1.9305
Neighbor list builds = 4
Dangerous builds = 0
timestep 0.1
run ${Ninptpre}
run 10000
PPPM initialization ...
  extracting TIP4P info from pair style
  using 12-bit tables for long-range coulomb (../kspace.cpp:321)
  G vector (1/distance) = 0.312053
  grid = 32 32 32
  stencil order = 5
  estimated absolute RMS force accuracy = 0.00312335
  estimated relative force accuracy = 9.40589e-06
  using double precision FFTs
  3d grid and FFT values/proc = 2475 256
Per MPI rank memory allocation (min/avg/max) = 7.944 | 8.122 | 8.208 Mbytes
Step Temp E_pair E_mol TotEng Press Volume 
   20000    294.24263   -16631.963            0   -14783.952    -13062.31    37245.685 
   30000    300.15805    -16771.69            0   -14886.528    585.98017    32787.344 
Loop time of 9.68309 on 128 procs for 10000 steps with 3108 atoms

Performance: 8.923 ns/day, 2.690 hours/ns, 1032.729 timesteps/s
99.4% CPU use with 128 MPI tasks x no OpenMP threads

MPI task timing breakdown:
Section |  min time  |  avg time  |  max time  |%varavg| %total
---------------------------------------------------------------
Pair    | 1.3605     | 2.5565     | 3.5149     |  26.0 | 26.40
Bond    | 0.00097039 | 0.0012244  | 0.0020953  |   0.7 |  0.01
Kspace  | 3.755      | 4.726      | 5.9458     |  19.1 | 48.81
Neigh   | 0.014361   | 0.014615   | 0.01484    |   0.1 |  0.15
Comm    | 0.90158    | 1.0306     | 1.1506     |   5.7 | 10.64
Output  | 9.4336e-05 | 9.944e-05  | 0.00010357 |   0.0 |  0.00
Modify  | 1.1294     | 1.2124     | 1.2787     |   3.0 | 12.52
Other   |            | 0.1417     |            |       |  1.46

Nlocal:    24.2812 ave 32 max 16 min
Histogram: 2 9 8 17 18 30 22 7 11 4
Nghost:    2863.14 ave 2891 max 2841 min
Histogram: 6 9 16 16 32 22 12 9 4 2
Neighs:    8982.84 ave 13290 max 5818 min
Histogram: 6 13 17 20 30 16 15 9 1 1

Total # of neighbors = 1149804
Ave neighs/atom = 369.95
Ave special neighs/atom = 1.9305
Neighbor list builds = 47
Dangerous builds = 0
timestep 0.2
run ${Ninptpre}
run 10000
PPPM initialization ...
  extracting TIP4P info from pair style
  using 12-bit tables for long-range coulomb (../kspace.cpp:321)
  G vector (1/distance) = 0.31048
  grid = 30 30 30
  stencil order = 5
  estimated absolute RMS force accuracy = 0.00367336
  estimated relative force accuracy = 1.10622e-05
  using double precision FFTs
  3d grid and FFT values/proc = 2475 256
Per MPI rank memory allocation (min/avg/max) = 7.949 | 8.179 | 8.217 Mbytes
Step Temp E_pair E_mol TotEng Press Volume 
   30000    300.15805   -16771.671            0   -14886.508    5561.2646    32787.344 
   40000    300.26807   -16838.231            0   -14952.377    546.27878    32884.907 
Loop time of 9.90022 on 128 procs for 10000 steps with 3108 atoms

Performance: 17.454 ns/day, 1.375 hours/ns, 1010.078 timesteps/s
99.3% CPU use with 128 MPI tasks x no OpenMP threads

MPI task timing breakdown:
Section |  min time  |  avg time  |  max time  |%varavg| %total
---------------------------------------------------------------
Pair    | 1.9322     | 2.7288     | 3.5231     |  21.1 | 27.56
Bond    | 0.00098804 | 0.00123    | 0.0020828  |   0.7 |  0.01
Kspace  | 3.7483     | 4.5793     | 5.3512     |  16.2 | 46.25
Neigh   | 0.03031    | 0.030959   | 0.031561   |   0.2 |  0.31
Comm    | 0.9866     | 1.1174     | 1.2592     |   6.0 | 11.29
Output  | 9.2793e-05 | 9.7339e-05 | 0.00010169 |   0.0 |  0.00
Modify  | 1.0574     | 1.2775     | 1.3744     |   6.6 | 12.90
Other   |            | 0.1649     |            |       |  1.67

Nlocal:    24.2812 ave 31 max 17 min
Histogram: 3 5 15 13 15 33 14 17 9 4
Nghost:    2843.25 ave 2868 max 2819 min
Histogram: 5 9 12 15 18 23 24 12 9 1
Neighs:    8907.76 ave 12463 max 5619 min
Histogram: 3 8 16 23 22 14 20 17 4 1

Total # of neighbors = 1140193
Ave neighs/atom = 366.857
Ave special neighs/atom = 1.9305
Neighbor list builds = 98
Dangerous builds = 0
timestep 0.5
run ${Ninptpre}
run 10000
PPPM initialization ...
  extracting TIP4P info from pair style
  using 12-bit tables for long-range coulomb (../kspace.cpp:321)
  G vector (1/distance) = 0.310408
  grid = 30 30 30
  stencil order = 5
  estimated absolute RMS force accuracy = 0.00368422
  estimated relative force accuracy = 1.10949e-05
  using double precision FFTs
  3d grid and FFT values/proc = 2475 256
Per MPI rank memory allocation (min/avg/max) = 7.954 | 8.207 | 8.218 Mbytes
Step Temp E_pair E_mol TotEng Press Volume 
   40000    300.26807   -16838.231            0   -14952.378   -319.12736    32884.907 
   50000     303.5743   -16877.917            0   -14971.298    454.90515    32463.763 
Loop time of 9.63788 on 128 procs for 10000 steps with 3108 atoms

Performance: 44.823 ns/day, 0.535 hours/ns, 1037.573 timesteps/s
99.4% CPU use with 128 MPI tasks x no OpenMP threads

MPI task timing breakdown:
Section |  min time  |  avg time  |  max time  |%varavg| %total
---------------------------------------------------------------
Pair    | 2.0192     | 2.7432     | 3.3893     |  17.8 | 28.46
Bond    | 0.00097445 | 0.0012325  | 0.0020591  |   0.7 |  0.01
Kspace  | 3.6732     | 4.356      | 5.0505     |  14.1 | 45.20
Neigh   | 0.074739   | 0.076236   | 0.077784   |   0.3 |  0.79
Comm    | 0.99217    | 1.1072     | 1.2423     |   5.2 | 11.49
Output  | 9.6219e-05 | 9.8798e-05 | 0.00011038 |   0.0 |  0.00
Modify  | 0.99335    | 1.1991     | 1.2905     |   6.2 | 12.44
Other   |            | 0.1548     |            |       |  1.61

Nlocal:    24.2812 ave 32 max 17 min
Histogram: 2 10 19 8 31 10 27 2 14 5
Nghost:    2876.28 ave 2905 max 2852 min
Histogram: 6 8 16 22 23 21 17 7 4 4
Neighs:    9030.55 ave 13260 max 6043 min
Histogram: 9 7 25 19 24 22 11 5 3 3

Total # of neighbors = 1155910
Ave neighs/atom = 371.914
Ave special neighs/atom = 1.9305
Neighbor list builds = 242
Dangerous builds = 0
reset_timestep 0

# continuing the initialization with the final value of timestep
unfix integrate
fix integrate all npt temp ${Temp} ${Temp} 100.0 iso ${Pres} ${Pres} 1000.0
fix integrate all npt temp 298 ${Temp} 100.0 iso ${Pres} ${Pres} 1000.0
fix integrate all npt temp 298 298 100.0 iso ${Pres} ${Pres} 1000.0
fix integrate all npt temp 298 298 100.0 iso 1 ${Pres} 1000.0
fix integrate all npt temp 298 298 100.0 iso 1 1 1000.0
#fix integrate all rigid/npt/small molecule temp ${Temp} ${Temp} 100.0 iso ${Pres} ${Pres} 1000.0

timestep ${tstep}
timestep 2
run ${Ninpt}
run 5000000
PPPM initialization ...
  extracting TIP4P info from pair style
  using 12-bit tables for long-range coulomb (../kspace.cpp:321)
  G vector (1/distance) = 0.310718
  grid = 30 30 30
  stencil order = 5
  estimated absolute RMS force accuracy = 0.00363737
  estimated relative force accuracy = 1.09538e-05
  using double precision FFTs
  3d grid and FFT values/proc = 2475 256
Per MPI rank memory allocation (min/avg/max) = 8.199 | 8.21 | 8.218 Mbytes
Step Temp E_pair E_mol TotEng Press Volume 
       0     303.5743   -16877.917            0   -14971.298   -101.16745    32463.763 
   10000    295.56632   -16838.681            0   -14982.357   -946.32805    32469.403 
   20000    300.94443   -16807.945            0   -14917.844    325.80127    32923.758 
   30000      299.422   -16894.861            0   -15014.321    636.61656    32631.912 
   40000    298.56144   -16905.605            0   -15030.469    642.28002    32139.735 
   50000     302.1236   -16912.808            0     -15015.3    266.24687    32459.647 
   60000    304.75545   -16861.027            0    -14946.99    394.04022    32285.918 
   70000    294.16146   -16778.029            0   -14930.528    352.80002    32829.218 
   80000    295.09922    -16908.33            0   -15054.939    467.97601    32400.347 
   90000    297.97172   -16748.773            0   -14877.342    141.05982    32916.353 
  100000    296.89072   -16811.752            0    -14947.11   -318.13247    32476.734 
  110000    295.58682   -16902.152            0   -15045.699    139.29297    32368.659 
  120000    299.49891   -16861.119            0   -14980.097    346.59541    32703.619 
  130000    294.71097   -16840.267            0   -14989.315   -148.98963    32699.697 
  140000    297.17484   -16893.758            0   -15027.331    101.64224    32786.079 
  150000    297.14131   -16878.754            0   -15012.538   -198.92149    32346.453 
  160000    295.45249   -16871.275            0   -15015.666   0.75760382    33132.834 
  170000     289.5975   -16830.934            0   -15012.098    660.08706    32737.216 
  180000    305.83438   -16808.204            0   -14887.391   -598.49959    32902.133 
  190000    295.31926   -16825.887            0   -14971.115    82.533924     32810.69 
  200000    299.39591   -16807.865            0   -14927.489   -584.95172    33179.696 
  210000    299.95527   -16881.027            0   -14997.138   -125.53312    33346.702 
  220000     296.9764   -16830.375            0   -14965.195    420.43024     32335.91 
  230000    302.37755   -16822.006            0   -14922.904   -19.394364    32988.514 
  240000    303.32587    -16818.28            0   -14913.222    251.31811    32533.898 
  250000    299.10128   -16766.317            0   -14887.791   -702.12445     32932.83 
  260000    294.92289   -16822.887            0   -14970.604   -535.77222    32687.584 
  270000    306.23978   -16847.023            0   -14923.663   -21.370196    32902.426 
  280000      295.085   -16880.144            0   -15026.843   -358.21534     32991.84 
  290000    301.39832   -16874.944            0   -14981.992   -144.13133    32602.027 
  300000    302.88757   -16878.861            0   -14976.556    243.33111    32692.675 
  310000    299.76116   -16869.281            0   -14986.611     -111.824    32801.011 
  320000    297.58783   -16734.781            0    -14865.76    732.19477    32657.269 
  330000    311.43411   -16855.193            0    -14899.21    351.32754    32855.019 
  340000    304.03379   -16829.549            0   -14920.045   -285.98226    32683.331 
  350000    301.78854   -16881.567            0   -14986.164    -108.8283    32792.053 
  360000    296.65731   -16895.836            0    -15032.66    -358.9505    32788.761 
  370000    303.94229    -16823.07            0   -14914.141   -232.55793    32929.153 
  380000    304.10153   -16738.986            0   -14829.056    281.39039    32749.714 
  390000    306.31603   -16876.438            0     -14952.6    -224.2513     32727.34 
  400000    295.84839   -16833.719            0   -14975.624   -176.08191    32510.587 
  410000    300.72229   -16795.598            0   -14906.892    211.51488    32520.742 
  420000    304.90732   -16912.884            0   -14997.893    819.97269    32503.506 
  430000    299.44605   -16793.509            0   -14912.818   -261.75706    32931.939 
  440000     299.1813   -16878.348            0    -14999.32   -272.11569    32312.546 
  450000    292.91464   -16902.285            0   -15062.615    728.18214    32660.542 
  460000    294.30686   -16849.945            0   -15001.531    302.92887    32958.929 
  470000    296.18511   -16922.839            0   -15062.629   -440.04166    33014.094 
  480000    307.53933   -16870.302            0   -14938.781    1345.4095    32583.926 
  490000    299.49271   -16861.817            0   -14980.833   -657.51955    33360.112 
  500000    299.02624   -16820.423            0   -14942.368    140.07734    32699.453 
  510000    296.37235   -16928.309            0   -15066.923    208.22999    32614.643 
  520000    301.98705   -16887.136            0   -14990.487     -158.143    32866.812 
  530000     293.3274   -16828.744            0   -14986.482   -41.503798    32626.018 
  540000    303.97781   -16843.024            0   -14933.872    -812.8838    33048.589 
  550000    295.72801   -16885.134            0   -15027.795    432.37629    32639.832 
  560000    290.68794   -16901.765            0    -15076.08   -42.580645    32594.087 
  570000    305.97795   -16833.768            0   -14912.053   -88.529065    33080.147 
  580000    298.38267   -16761.964            0   -14887.952    210.53606    32823.327 
  590000    295.72423   -16953.201            0   -15095.885   -396.81012    32750.503 
  600000    311.77129   -16795.038            0   -14836.937    65.837643    32719.294 
  610000    303.25023   -16728.483            0   -14823.899    269.58845    32949.306 
  620000    299.39723   -16817.399            0   -14937.014   -642.00885    32898.953 
  630000    310.57058   -16851.296            0   -14900.737    81.834852    32776.323 
  640000    297.67158   -16827.355            0   -14957.808    230.77472    32823.088 
  650000    294.45116   -16830.625            0   -14981.305   -69.998107    32605.236 
  660000    295.34357   -16893.751            0   -15038.826    13.656107    32580.733 
  670000    300.77649   -16793.824            0   -14904.777    155.16498    32644.388 
  680000    299.21609   -16896.183            0   -15016.936     36.74754    32973.809 
  690000     295.5316   -16866.299            0   -15010.193   -881.92416    33004.597 
  700000    303.14343   -16797.996            0   -14894.083   -420.46372    33033.665 
  710000    296.68112   -16831.109            0   -14967.783    253.26797    32645.429 
  720000    298.53203   -16833.199            0   -14958.248    -470.1914    33128.849 
  730000    296.70692   -16830.275            0   -14966.787   -211.64526    32450.127 
  740000    301.92737   -16705.809            0   -14809.534   -520.38967    32780.885 
  750000    310.56445   -16876.607            0   -14926.086    347.01162    32734.522 
  760000     301.7248   -16745.574            0   -14850.571    51.927997    32957.441 
  770000     291.2295   -16831.107            0   -15002.021    110.10807    32545.522 
  780000    306.86568   -16895.563            0   -14968.272   -91.167514    32787.543 
  790000    299.59337   -16740.666            0    -14859.05   -758.56267    33235.933 
  800000    301.99551   -16887.822            0   -14991.119    70.406357    33053.345 
  810000    295.79548    -16829.65            0   -14971.887   -356.27485    32782.397 
  820000    297.39979   -16761.682            0   -14893.843    195.69663     33069.27 
  830000    290.99187   -16789.258            0   -14961.664   -967.36903    32628.141 
  840000    292.71345   -16874.262            0   -15035.855    707.04305    32772.931 
  850000    310.84038   -16850.991            0   -14898.737   -517.90858    33191.503 
  860000    294.71675   -16850.598            0   -14999.609    -105.5465    32544.045 
  870000     298.2545   -16889.959            0   -15016.751   -279.49644    32750.555 
  880000    306.98515   -16941.367            0   -15013.326    806.77482     32631.16 
  890000    287.59186    -16947.28            0   -15141.041   -952.70682    32747.485 
  900000    292.15945   -16815.739            0   -14980.813   -576.51984    33234.757 
  910000    295.48602   -16867.044            0   -15011.224   -788.82188    32594.815 
  920000    292.43423    -16845.45            0   -15008.798   -683.44888    32990.385 
  930000    286.50582    -16866.61            0   -15067.192    276.36636    32443.414 
  940000    291.70696    -16948.84            0   -15116.755    1200.1133    32268.515 
  950000    297.24056   -16849.944            0   -14983.105    222.54904    32744.497 
  960000    294.61602   -16871.139            0   -15020.784    123.51186    32383.981 
  970000    306.46457   -16820.779            0   -14896.007    229.05592    32786.569 
  980000    300.31786   -16886.162            0   -14999.996   -464.96017    32788.263 
  990000    297.85245   -16744.571            0   -14873.889   -353.26356    32715.174 
 1000000    286.35296   -16871.452            0   -15072.993   -626.78142    33174.193 
 1010000    301.18161   -16802.242            0   -14910.651    436.74345    32558.363 
 1020000    299.12571   -16868.936            0   -14990.257    4.1998272    32798.204 
 1030000    293.01691   -16939.976            0   -15099.664   -551.53721    33269.077 
 1040000    297.71106   -16868.263            0   -14998.469    518.42227    32588.495 
 1050000    287.66091   -16967.056            0   -15160.383   -896.10854    33178.644 
 1060000    296.64754   -16818.008            0   -14954.893   -381.09839    32633.506 
 1070000       298.18   -16841.848            0   -14969.109    211.03824    32902.055 
 1080000    308.19227   -16811.164            0   -14875.541    182.74703    32903.612 
 1090000    291.41744   -16836.187            0   -15005.921    215.07195    32751.117 
 1100000    298.24576   -16898.732            0    -15025.58     738.0202    32584.478 
 1110000    301.25298   -16843.304            0   -14951.265    167.95206    32575.507 
 1120000     298.5863   -16827.438            0   -14952.147    523.82112    32465.665 
 1130000    301.35084   -16862.276            0   -14969.622    612.44488    32385.804 
 1140000    297.89064   -16888.151            0   -15017.229    764.34213    32611.426 
 1150000    295.29424   -16840.003            0   -14985.388   -280.76987    32707.072 
 1160000    298.71876   -16801.843            0    -14925.72    266.69035    32417.226 
 1170000    302.49184   -16942.207            0   -15042.386    -594.8541    32644.618 
 1180000     297.2817   -16931.112            0   -15064.014   -539.83218    32835.974 
 1190000     311.4679   -16947.396            0   -14991.201   -212.73444    32524.915 
 1200000    296.12552   -16738.834            0   -14878.998   -206.17011    32876.258 
 1210000    300.33231   -16914.419            0   -15028.162     -77.1605     32645.62 
 1220000    295.84258   -16775.066            0   -14917.007    316.36773    33057.135 
 1230000    291.40011   -16783.708            0   -14953.551   -612.88225    33073.114 
 1240000    302.19642   -16903.921            0   -15005.956    392.18991    32427.778 
 1250000    295.36898   -16794.036            0   -14938.951   -96.945252    33072.126 
 1260000    301.98985   -16922.582            0   -15025.914    582.66999    32784.433 
 1270000    289.39849   -16819.036            0    -15001.45    165.93249    32770.064 
 1280000    295.95338   -16774.715            0    -14915.96   -62.613944    33155.225 
 1290000    291.42645   -16926.318            0   -15095.994     187.5004    32636.424 
 1300000    300.94808   -16832.136            0   -14942.012   -356.10142    32746.309 
 1310000     300.5215   -16828.449            0   -14941.003    -141.2149    32536.516 
 1320000    296.29889   -16876.963            0   -15016.038   -390.37887    32871.582 
 1330000    299.11906   -16926.915            0   -15048.278     146.2957     32773.71 
 1340000    306.73985   -16822.824            0   -14896.324    541.91967    32509.815 
 1350000    297.24127    -16889.62            0   -15022.777   -797.26803    33133.059 
 1360000    293.61954   -16857.037            0    -15012.94   -640.14794    32979.916 
 1370000    290.81067   -16862.038            0   -15035.582   -249.39632    32750.136 
 1380000    294.67491   -16875.028            0   -15024.302   -106.13706    33158.282 
 1390000    292.32418   -16821.693            0   -14985.731    368.36656    32496.971 
 1400000    289.81288     -16833.5            0   -15013.311    104.57713    32598.382 
 1410000     299.5525    -16905.42            0   -15024.061    32.682745    32633.604 
 1420000    302.42444    -16869.56            0   -14970.164     982.4315    32878.712 
 1430000     289.2008   -16835.447            0   -15019.102   -682.42275    33059.067 
 1440000    297.40352   -16857.855            0   -14989.992   -233.16449     32978.82 
 1450000    308.63625   -16907.441            0   -14969.031    110.87889    32831.707 
 1460000    298.29866   -16818.287            0   -14944.802   -314.16794    32797.974 
 1470000    300.86138   -16857.036            0   -14967.456     39.96581    32416.473 
 1480000    300.52483   -16976.631            0   -15089.165    139.69108    32713.569 
 1490000    298.21369   -16835.999            0   -14963.048    231.94562      32389.9 
 1500000    291.68452   -16901.176            0   -15069.232    693.42261    32506.052 
 1510000    304.01861   -16879.913            0   -14970.504   -136.40217    32726.797 
 1520000    294.95788   -16866.819            0   -15014.317    399.30102    32652.899 
 1530000    300.82455   -16868.702            0   -14979.353    459.41051    32811.995 
 1540000    297.79753   -16815.775            0   -14945.438   -304.77172     33204.63 
 1550000    295.10633   -16841.572            0   -14988.137    417.70974    32479.456 
 1560000    295.39294   -16824.538            0   -14969.303   -198.86759    33008.655 
 1570000    297.21415   -16776.796            0   -14910.123   -573.40294    32773.344 
 1580000    296.28171   -16841.542            0   -14980.725    -107.3509    32817.203 
 1590000    295.82264   -16861.748            0   -15003.814   -8.8712202    32355.384 
 1600000    304.78605   -16813.462            0   -14899.233   -116.66455    33070.022 
 1610000    299.16576   -16822.229            0   -14943.298   -902.77442    32833.569 
 1620000    301.22934   -16864.884            0   -14972.993    356.99656    32519.268 
 1630000    299.94683   -16861.747            0   -14977.911   -124.84551    32484.611 
 1640000    299.32101   -16848.708            0   -14968.802   -44.578812    32859.741 
 1650000    290.60675   -16801.615            0   -14976.439   -627.30042    32972.264 
 1660000    289.36907   -16839.512            0   -15022.111     438.3239    32887.992 
 1670000    294.04619   -16907.093            0   -15060.316   -321.68126    32754.187 
 1680000    302.11136   -16782.259            0   -14884.828   -181.82292    32568.445 
 1690000    287.53115   -16789.742            0   -14983.883   -659.16965    32830.301 
 1700000    305.60297   -16920.604            0   -15001.244   -390.82764    32591.458 
 1710000    302.21935   -16862.113            0   -14964.004   -285.00208    32313.038 
 1720000    301.20399   -16822.053            0   -14930.321    71.173667     32343.25 
 1730000    295.48809   -16924.893            0    -15069.06   -159.64663     32781.59 
 1740000    296.96603   -16896.769            0   -15031.654    53.675841    32904.538 
 1750000    303.33285   -16895.467            0   -14990.365    763.26557    32310.883 
 1760000    307.87744   -16860.281            0   -14926.636    703.85031    32279.239 
 1770000    302.98685   -16888.362            0   -14985.432   -85.486925    32685.444 
 1780000    301.97518   -16902.332            0   -15005.756    1191.4094    32794.295 
 1790000    304.74735   -16823.473            0   -14909.487    560.28353    32329.802 
 1800000    295.90036   -16882.842            0    -15024.42    406.44592     32736.05 
 1810000    294.87664   -16860.823            0    -15008.83   -473.27227    32724.309 
 1820000    301.31552   -16909.763            0   -15017.331    87.089761    32697.547 
 1830000    300.72154   -16833.859            0   -14945.158    392.12184    32772.659 
 1840000    310.23596   -16903.464            0   -14955.006   -40.344437    32942.095 
 1850000    299.41056   -16888.011            0   -15007.543     108.7907    32617.672 
 1860000    298.56371   -16911.595            0   -15036.446      184.938    32597.687 
 1870000    298.97174   -16872.665            0   -14994.953   -525.80175    32693.411 
 1880000    298.71438   -16894.462            0   -15018.366   -844.54672    33011.603 
 1890000    294.12451   -16946.398            0   -15099.129    156.93165    32534.104 
 1900000     300.0263   -16916.727            0   -15032.392    30.050682    32899.737 
 1910000    304.74131   -16837.475            0   -14923.527    644.12025    32647.747 
 1920000    299.44452   -16783.925            0   -14903.243    -114.3575    32699.575 
 1930000     288.8108   -16802.602            0   -14988.706   -273.06076    33075.126 
 1940000    297.06924   -16900.859            0   -15035.096    1253.3965    32858.716 
 1950000    298.91655   -16785.212            0   -14907.847   -242.41289    32831.624 
 1960000    294.45067   -16845.398            0   -14996.081   -190.31266    33253.474 
 1970000    303.45731   -16895.719            0   -14989.835    36.397402     32868.63 
 1980000    299.75251   -16798.195            0   -14915.579    339.14459    32580.837 
 1990000    298.30895   -16892.522            0   -15018.973    299.33919    32840.447 
 2000000    295.55624   -16913.796            0   -15057.535    730.18075     32532.61 
 2010000    296.28821   -16862.527            0   -15001.669     65.50448    32851.951 
 2020000    287.39561   -16886.451            0   -15081.444    473.35244    32482.541 
 2030000    297.81343   -16933.198            0   -15062.761   -846.70558    32999.455 
 2040000    297.00577   -16782.693            0   -14917.329    737.59189    32610.187 
 2050000    290.53525   -16991.035            0   -15166.309   -448.25083    32838.377 
 2060000    301.38184   -16913.318            0   -15020.469   -413.48809    33047.174 
 2070000    299.51869   -16825.916            0   -14944.769    107.57524    33143.179 
 2080000    292.55197   -16972.197            0   -15134.805    83.427523    32779.653 
 2090000    306.52092   -16847.784            0   -14922.659     588.8723    32245.885 
 2100000    293.98644   -16899.578            0   -15053.176    432.13182    32783.953 
 2110000     293.2135   -16809.888            0   -14968.341    -91.25652     32682.49 
 2120000    296.39813   -16888.368            0    -15026.82   -129.14504    32848.725 
 2130000    296.49927   -16856.862            0   -14994.679    6.8116738    32272.888 
 2140000    302.36714   -16847.953            0   -14948.916   -424.84658     32923.76 
 2150000    307.29183   -16843.325            0   -14913.358   -142.68008     32995.64 
 2160000    308.72481   -16883.611            0   -14944.644      226.246     32442.75 
 2170000    289.09697   -16922.408            0   -15106.715   -477.74114    32719.619 
 2180000    301.68992   -16790.513            0    -14895.73   -4.3366523     32697.06 
 2190000    295.74186   -16877.683            0   -15020.257   -212.24024    32802.843 
 2200000    295.37642   -16876.136            0   -15021.005    1486.2173    32147.951 
 2210000    300.22103   -16951.104            0   -15065.546    515.83984    32671.743 
 2220000    293.33626   -16919.456            0   -15077.138    7.6141016    32769.703 
 2230000    296.72154   -16875.359            0    -15011.78   -105.90311    32807.323 
 2240000    294.30599   -16848.037            0   -14999.628   -315.69791    33023.029 
 2250000    298.71383   -16922.539            0   -15046.447   -490.48329    32478.757 
 2260000    306.46617   -16839.382            0   -14914.601    197.44025    32514.867 
 2270000     303.2671   -16846.552            0   -14941.862    662.61762     32551.77 
 2280000    299.15842   -16867.561            0   -14988.676    271.04803    32960.375 
 2290000    301.84346   -16811.924            0   -14916.176    -105.7606    32873.113 
 2300000    298.49852    -16876.17            0    -15001.43   -438.39928    32811.401 
 2310000    298.76191   -16804.918            0   -14928.524    284.43822    32846.309 
 2320000    296.29305   -16813.807            0   -14952.919   -956.59146    32619.752 
 2330000    299.28822   -16847.593            0   -14967.893    475.94358    32328.201 
 2340000     298.3855   -16861.047            0   -14987.016    90.990247    33051.797 
 2350000     299.0727   -16904.958            0   -15026.612   -154.72568    32474.119 
 2360000    309.76921   -16847.404            0   -14901.878     728.8793    32139.438 
 2370000    295.30952   -16753.494            0   -14898.783   -28.117566    32769.817 
 2380000    294.26823   -16875.717            0   -15027.546   -144.83646    32729.708 
 2390000    295.15026   -16843.908            0   -14990.198   -356.40175    32589.419 
 2400000    302.80543   -16830.644            0   -14928.854    307.04918    32527.566 
 2410000    294.53304   -16867.204            0   -15017.369    1038.2376     32569.45 
 2420000     296.0266   -16918.634            0    -15059.42    225.37929    32465.773 
 2430000     295.7572     -16852.4            0   -14994.877   -874.71057    33047.839 
 2440000    298.41701   -16890.063            0   -15015.835    282.41058    32374.826 
 2450000     297.2556   -16960.768            0   -15093.834   -216.45538    32755.034 
 2460000    293.42954   -16873.498            0   -15030.595   -125.91071      32750.2 
 2470000    307.74617   -16851.243            0   -14918.422    -279.7095    32719.887 
 2480000    294.65607   -16770.391            0   -14919.784   -215.79722    32670.026 
 2490000    291.78783   -16873.163            0    -15040.57    167.28918     32449.56 
 2500000    291.21666   -16851.536            0    -15022.53    1068.2931    32736.639 
 2510000    299.41858   -16786.362            0   -14905.844    184.76718    32524.595 
 2520000    306.01774   -16847.921            0   -14925.956    698.63087    32738.278 
 2530000    301.06888   -16921.611            0   -15030.728   -264.07843    32775.686 
 2540000    300.08928   -16874.244            0   -14989.513   -220.16839    32859.099 
 2550000    300.06752   -16729.534            0    -14844.94   -138.00015    33373.034 
 2560000    301.42501   -16865.853            0   -14972.733    282.55261    32790.989 
 2570000    310.42333   -16837.162            0   -14887.528    37.898066    32961.008 
 2580000      297.139   -16837.051            0    -14970.85    149.63182    32997.978 
 2590000    303.94821    -16861.18            0   -14952.213   -16.396378    32528.514 
 2600000    297.31987   -16955.292            0   -15087.955    524.78536    32486.303 
 2610000    302.78397   -16817.467            0   -14915.812    35.142197     32711.12 
 2620000    287.97323   -16901.815            0    -15093.18    685.10626    32635.035 
 2630000    296.72756   -16875.367            0    -15011.75   -4.3668527    32788.293 
 2640000    298.83481   -16874.253            0   -14997.401     455.7454    32938.794 
 2650000    299.96597   -16867.735            0   -14983.779    525.42381    32589.617 
 2660000    294.25737   -16813.222            0   -14965.119    212.65649    32877.046 
 2670000    294.05854   -16829.985            0   -14983.131    467.12889    32435.556 
 2680000    297.94501   -16888.317            0   -15017.054    87.226669     32831.74 
 2690000    305.51744   -16937.123            0   -15018.301   -2.9827924    32733.279 
 2700000    298.97651   -16858.215            0   -14980.473    305.68924     33019.72 
 2710000    292.35493   -16874.241            0   -15038.086   -77.631186     32426.21 
 2720000    294.84776   -16874.301            0    -15022.49   -373.87401    32861.256 
 2730000    303.67891   -16784.783            0   -14877.507       246.03    32883.656 
 2740000    296.64884   -16940.822            0   -15077.699   -813.14901    32454.134 
 2750000    307.31659   -16869.082            0    -14938.96     54.94781    32791.301 
 2760000    291.11944   -16903.863            0   -15075.468    -293.3109    32833.786 
 2770000    290.69569   -16853.433            0     -15027.7   -349.22633    32889.988 
 2780000        296.3   -16919.559            0   -15058.627    -106.8916    32793.642 
 2790000    309.69169   -16894.347            0   -14949.307    272.34994    32602.453 
 2800000    285.39982   -16890.651            0   -15098.179   -642.01498    32894.344 
 2810000     301.5597    -16880.15            0   -14986.184   -562.72713    32738.207 
 2820000    299.22445   -16910.945            0   -15031.645    388.57369    32590.663 
 2830000     300.4049   -16890.694            0   -15003.981    228.33293    32571.251 
 2840000     299.4179   -16884.087            0   -15003.573     94.25307    32951.692 
 2850000    293.72257    -16918.06            0   -15073.316    880.42509    32355.903 
 2860000    297.88722   -16796.555            0   -14925.654    439.00206    32313.776 
 2870000    304.44609   -16874.268            0   -14962.174    1154.0219    32380.645 
 2880000    295.88693   -16884.631            0   -15026.293   -675.96697    33103.714 
 2890000    297.92279   -16814.569            0   -14943.445   -170.02554    32825.942 
 2900000    292.53166    -16784.78            0   -14947.515   -537.01593    32806.895 
 2910000    291.16619   -16817.141            0   -14988.453   -407.57585    33105.389 
 2920000    299.10355   -16833.177            0   -14954.637    20.923344    32777.506 
 2930000    297.77681   -16829.973            0   -14959.766    96.234117    32468.954 
 2940000    292.52159   -16885.381            0   -15048.179   -276.94647    32593.853 
 2950000     297.6022   -16836.016            0   -14966.905    30.436701    33005.625 
 2960000    297.47952    -16921.81            0    -15053.47      109.318    32512.743 
 2970000    289.12857    -16813.05            0   -14997.159   -1241.1116    33050.138 
 2980000     292.8864   -16863.609            0   -15024.117   -734.80849    33095.244 
 2990000    293.78212   -16814.012            0   -14968.894    902.38783    32526.654 
 3000000    301.03801   -16812.065            0   -14921.375   -365.38874    32900.656 
 3010000     297.7557   -16821.544            0   -14951.469    281.42535     32811.61 
 3020000    293.82586   -16868.495            0   -15023.102    472.85345    32556.942 
 3030000    294.43131   -16846.662            0   -14997.467    112.59344    32587.637 
 3040000      293.601   -16851.389            0   -15007.409   -374.31053    32758.374 
 3050000    298.02939   -16774.418            0   -14902.624   -421.16642    33098.754 
 3060000    300.38497   -16788.728            0    -14902.14   -372.75677    32944.266 
 3070000    296.72603   -16833.624            0   -14970.016    142.76693    32502.456 
 3080000    300.16912   -16780.173            0   -14894.941    808.79834    32349.062 
 3090000    291.61895   -16788.592            0   -14957.059    111.24894    32604.836 
 3100000    306.06468   -16800.371            0   -14878.112    1.2954502    32852.682 
 3110000    297.53773   -16849.311            0   -14980.606    589.73335    32476.015 
 3120000    302.92364   -16908.121            0   -15005.589    170.88926    32881.587 
 3130000    296.88219   -16941.908            0    -15077.32    517.23422    32257.857 
 3140000    296.94053   -16861.913            0   -14996.958    65.263956     32252.14 
 3150000      290.171   -16821.166            0   -14998.728   -602.29533    32510.486 
 3160000    297.43876   -16910.153            0   -15042.069    486.63587    32595.181 
 3170000    285.46016   -16870.251            0     -15077.4    171.75615    32311.219 
 3180000    299.08335   -16863.314            0   -14984.901    343.15217    32568.184 
 3190000    298.83532   -16904.512            0   -15027.657    151.31391    32961.729 
 3200000    305.62602   -16888.943            0   -14969.438   -1085.2957    32942.829 
 3210000    301.47677    -16788.52            0   -14895.075    651.65577    33012.961 
 3220000    299.13333   -16888.995            0   -15010.268   -562.08415    33144.025 
 3230000    298.62261   -16852.375            0   -14976.856   -584.64687    32924.081 
 3240000    299.08137   -16901.071            0    -15022.67    787.73181    32319.051 
 3250000    296.07213   -16826.918            0   -14967.418   -716.85449    33138.786 
 3260000    303.17687    -16859.93            0   -14955.807    -730.6398    33296.542 
 3270000    296.48246   -16741.482            0   -14879.404   -117.78434    32902.749 
 3280000    292.64615    -16756.36            0   -14918.376    105.10724    32405.031 
 3290000    297.37302   -16832.491            0    -14964.82    57.441501    32869.367 
 3300000    302.62276   -16814.886            0   -14914.244    154.11557    32578.852 
 3310000     290.3083   -16809.814            0   -14986.513   -132.07721    32705.927 
 3320000    304.89982   -16842.118            0   -14927.174   -824.09759    33293.364 
 3330000    297.23084   -16795.555            0   -14928.776   -611.43053    33368.255 
 3340000    297.76306   -16835.058            0   -14964.937     44.85557    32789.661 
 3350000    297.47139   -16907.462            0   -15039.173     365.3012    32069.156 
 3360000    302.52129   -16974.455            0    -15074.45    77.744421    32672.601 
 3370000    291.89199    -16889.33            0   -15056.083   -282.22797    32914.162 
 3380000    296.04263   -16830.074            0   -14970.759    163.12783     32713.17 
 3390000    289.72695   -16893.179            0    -15073.53    200.23392    32794.704 
 3400000    296.96791   -16775.825            0   -14910.698   -5.4729599    33047.716 
 3410000    291.42017   -16930.688            0   -15100.404   -201.55588    32816.685 
 3420000    299.71497   -16883.004            0   -15000.624    588.68513     32643.19 
 3430000    300.97106   -16808.629            0    -14918.36     1095.487    32400.986 
 3440000    304.70188   -16795.356            0   -14881.655   -70.449802    32564.108 
 3450000    298.15322   -16890.734            0   -15018.163   -184.33808    32686.472 
 3460000     301.1497   -16838.376            0   -14946.985    104.46829    32774.433 
 3470000    292.59393   -16845.201            0   -15007.545   -1104.2495    33164.492 
 3480000    295.22836    -16789.22            0   -14935.018   -467.79173    32710.134 
 3490000    289.86738   -16871.822            0   -15051.291   -231.01278    32996.897 
 3500000    294.58776   -16858.801            0   -15008.623    1125.4394    32432.597 
 3510000    297.43026   -16838.859            0   -14970.829   -312.84719    32878.409 
 3520000    302.87547   -16817.906            0   -14915.676   -812.95769    32686.275 
 3530000     307.3518   -16806.862            0   -14876.519    180.59933     32918.69 
 3540000    287.06914   -16861.351            0   -15058.394   -143.47044    32680.524 
 3550000    295.52418   -16881.383            0   -15025.324   -104.14075    33021.109 
 3560000    293.75535     -16886.2            0    -15041.25   -482.92897    32781.357 
 3570000    296.46924   -16835.754            0   -14973.759   -63.926672    32879.677 
 3580000    303.55285   -16842.271            0   -14935.787   -266.97625     33020.14 
 3590000    296.07828   -16817.164            0   -14957.625    391.59667    32512.203 
 3600000    290.22587   -16836.413            0   -15013.631   -17.562214    33172.591 
 3610000      295.878   -16919.132            0    -15060.85    505.60377    32268.564 
 3620000    303.18483   -16940.359            0   -15036.186   -139.94057    32782.631 
 3630000    295.73238   -16806.754            0   -14949.387    69.787744    32440.115 
 3640000    305.45924   -16843.132            0   -14924.675    673.43557    32296.985 
 3650000    288.37038   -16792.321            0   -14981.192   -337.32346     32805.05 
 3660000    301.37896   -16920.849            0   -15028.019   -452.19629    32823.223 
 3670000    303.10469   -16861.517            0   -14957.848     49.83807    32953.579 
 3680000    296.31236   -16852.732            0   -14991.722   -187.92401    33153.881 
 3690000     296.8459   -16830.739            0   -14966.378    549.26278    33084.139 
 3700000    306.77016   -16960.635            0   -15033.944   -664.71537    32781.892 
 3710000    296.35452   -16800.331            0   -14939.057   -568.25442    33456.783 
 3720000    301.07205   -16866.568            0   -14975.665   -594.04083    33002.108 
 3730000    296.01019    -16845.87            0   -14986.759    74.686791    32755.168 
 3740000    300.85082   -16850.447            0   -14960.933   -680.81762    32872.014 
 3750000    299.63593   -16892.229            0   -15010.346    543.97039    32416.604 
 3760000    298.70679   -16847.156            0   -14971.108    205.14771    32603.028 
 3770000     295.0438   -16877.523            0   -15024.481    1149.7839    32439.493 
 3780000    305.85094   -16868.888            0   -14947.971   -314.27343     32614.93 
 3790000    303.37021   -16846.067            0   -14940.731   -191.88822    32816.666 
 3800000    301.08913   -16859.167            0   -14968.157    448.61398    32935.169 
 3810000    306.98924   -16908.903            0   -14980.837    7.5635203    32723.541 
 3820000    295.94156   -16848.524            0   -14989.843   -53.664355    32680.425 
 3830000     297.4997   -16753.579            0   -14885.112   -384.44082    33152.734 
 3840000    304.52149   -16852.988            0    -14940.42    -598.3373    33015.994 
 3850000    303.56256   -16897.795            0    -14991.25   -608.84383    32660.052 
 3860000    287.34692   -16934.558            0   -15129.856    639.80097    32348.288 
 3870000    299.54728   -16878.218            0   -14996.892   -1244.3674    32691.653 
 3880000    302.02042   -16855.425            0   -14958.566   -941.86991    33269.457 
 3890000    300.76194   -16884.381            0   -14995.426   -241.56762     32982.48 
 3900000    291.02828   -16887.357            0   -15059.535    882.16485    32514.995 
 3910000    295.80979   -16840.589            0   -14982.736   -303.15967    33247.088 
 3920000      295.663   -16875.867            0   -15018.936   -623.51256    32899.293 
 3930000    295.14572     -16830.6            0   -14976.917    -318.6951    32958.422 
 3940000    300.44499   -16869.237            0   -14982.272    775.71466    32586.389 
 3950000    306.40304   -16892.621            0   -14968.237   -551.45325    32796.992 
 3960000    292.32666   -16846.947            0    -15010.97   -474.87533    32905.284 
 3970000    303.42354   -16867.336            0   -14961.664   -540.19432    32811.279 
 3980000    299.27255   -16846.011            0    -14966.41    797.48343    32246.664 
 3990000    300.55741   -16858.022            0   -14970.351    243.75027    32771.907 
 4000000    303.64203   -16932.424            0    -15025.38    -517.9985    32792.235 
 4010000    301.53829   -16841.087            0   -14947.256   -148.85477    32826.679 
 4020000    304.17698   -16940.209            0   -15029.805    311.57705    32405.539 
 4030000    292.34597   -16771.195            0   -14935.097   -173.07876    32751.864 
 4040000    305.43047   -16835.347            0   -14917.071   -36.432886    32741.705 
 4050000    294.97759   -16837.134            0   -14984.508     926.7079    32458.217 
 4060000    294.34657   -16810.883            0   -14962.219    -550.4729    32818.214 
 4070000    298.06129   -16883.494            0     -15011.5    150.55104     32697.04 
 4080000     304.2266   -16888.666            0    -14977.95    184.76822    32665.175 
 4090000     291.9618   -16931.215            0   -15097.529   -548.16736    32692.581 
 4100000    297.66292   -16827.872            0    -14958.38    233.95352    32616.082 
 4110000    303.30532   -16899.185            0   -14994.256   -686.31765    32498.799 
 4120000    302.13105   -16859.451            0   -14961.897   -109.99592    32768.349 
 4130000    292.05518   -16887.942            0    -15053.67   -130.55158    32686.947 
 4140000    306.80106   -16828.203            0   -14901.319   -902.18909    33222.033 
 4150000    289.99137   -16837.232            0   -15015.922   -231.62421    32845.457 
 4160000    293.95678   -16846.962            0   -15000.747    711.39269    32452.845 
 4170000    298.67991   -16935.989            0    -15060.11    718.18871    32224.696 
 4180000    303.83441   -16948.482            0    -15040.23    686.28874     32428.89 
 4190000    300.69316   -16749.786            0   -14861.263   -505.00794    32914.169 
 4200000    296.29933   -16884.043            0   -15023.115    237.08427    32974.756 
 4210000    294.49897   -16886.024            0   -15036.404   -185.58748    32838.353 
 4220000    288.77144   -16832.273            0   -15018.625    246.58902    32181.602 
 4230000    295.67405   -16856.937            0   -14999.936    545.82695    32453.529 
 4240000    299.26835   -16833.969            0   -14954.394   -380.97783    32487.188 
 4250000    300.84334   -16869.231            0   -14979.764    890.21793     32281.26 
 4260000     293.7412   -16897.422            0    -15052.56    943.43207    32722.136 
 4270000    297.67066    -16840.87            0    -14971.33    403.38577    32526.197 
 4280000    305.42002   -16785.721            0    -14867.51   -789.46798    33042.348 
 4290000    291.66682   -16833.926            0   -15002.093    168.92774    32945.818 
 4300000    303.64825   -16932.726            0   -15025.643    719.08572    32183.203 
 4310000    306.48646   -16868.012            0   -14943.103   -179.98204    33017.003 
 4320000    292.87103   -16844.042            0   -15004.646   -38.851641    33059.298 
 4330000    301.71683   -16807.722            0    -14912.77    207.28227    32684.235 
 4340000    294.16959   -16937.995            0   -15090.444   -1090.8778    32518.823 
 4350000    305.49089   -16973.689            0   -15055.033   -110.47691    32892.995 
 4360000    289.37204   -16815.092            0   -14997.671   -40.711667    32488.096 
 4370000    290.74342   -16879.167            0   -15053.134     32.73873    32808.936 
 4380000    298.52185   -16790.352            0   -14915.466    141.79898    32598.056 
 4390000    291.04886   -16848.923            0   -15020.971      85.5063    32752.387 
 4400000    296.70075   -16865.827            0   -15002.378   -439.90886    32914.637 
 4410000    300.93968   -16893.586            0   -15003.514   -55.039469    32849.212 
 4420000    296.76795   -16744.482            0   -14880.611   -537.43617    32734.178 
 4430000    296.96954   -16874.729            0   -15009.592    808.10258    33052.102 
 4440000    292.08991   -16846.036            0   -15011.545    874.86624     32726.22 
 4450000    293.43815   -16751.616            0   -14908.658   -277.43801    33033.921 
 4460000    294.24939    -16793.54            0   -14945.487   -153.34828    33379.257 
 4470000    302.71322   -16982.083            0   -15080.872   -343.86047    32723.971 
 4480000    298.90772   -16860.794            0   -14983.484   -311.26457    32397.329 
 4490000    304.71099   -16888.263            0   -14974.506    319.61047    32710.377 
 4500000    298.50947   -16899.481            0   -15024.672   -308.84185    32899.898 
 4510000    289.22312   -16890.476            0   -15073.991   -529.89118    32463.847 
 4520000    301.72699    -16781.83            0   -14886.814    472.90807    32926.292 
 4530000    303.25231   -16858.784            0   -14954.188   0.66632424    32436.444 
 4540000    303.99032   -16780.721            0   -14871.489   -66.946627    32615.156 
 4550000    295.91202   -16841.846            0   -14983.351    54.907275    32747.519 
 4560000    292.56202   -16975.418            0   -15137.963    395.98816    32368.995 
 4570000    301.37954    -16858.97            0   -14966.136    714.82422    32601.202 
 4580000    300.84505    -16799.21            0   -14909.732   -78.180483    33054.374 
 4590000    303.21715   -16839.613            0   -14935.237   -306.87872     32730.02 
 4600000    295.82717   -16895.532            0    -15037.57    645.94913    32525.548 
 4610000     292.9682   -16888.564            0   -15048.557   -621.27025    32873.166 
 4620000    299.12931   -16816.725            0   -14938.023   -706.90105    33331.569 
 4630000    293.66655   -16795.771            0   -14951.379     87.50921    32581.434 
 4640000    300.28765    -16802.87            0   -14916.894    91.793289    32956.735 
 4650000    296.99859   -16852.092            0   -14986.772    782.65234    32585.481 
 4660000    293.40011   -16845.789            0    -15003.07   -838.88876    32994.717 
 4670000    297.96742   -16876.407            0   -15005.002    -435.4995    32681.586 
 4680000    303.69371   -16899.567            0   -14992.199   -30.087416    32304.125 
 4690000    301.03043   -16835.023            0   -14944.381   -410.83488     32697.69 
 4700000    299.93009   -16822.169            0   -14938.438    70.706117    32856.713 
 4710000    298.16236   -16960.691            0   -15088.062   -420.09898    32769.746 
 4720000    306.56642   -16787.604            0   -14862.193   -594.08397    32653.012 
 4730000    304.40126     -16886.9            0   -14975.088    528.54116     32354.42 
 4740000    294.67755   -16769.766            0   -14919.024   -248.58263    32737.429 
 4750000    304.45512   -16759.461            0   -14847.311     -359.951    32750.491 
 4760000    305.82222   -16824.107            0   -14903.371    456.93627    32694.846 
 4770000    301.47063   -16852.469            0   -14959.062   -198.41881    33033.705 
 4780000    303.78447   -16873.039            0   -14965.101    65.128871    32284.427 
 4790000    300.75795   -16835.738            0   -14946.808   -597.20183    33321.801 
 4800000    296.71044   -16854.928            0   -14991.418    68.782339    32534.145 
 4810000    294.76809   -16805.625            0   -14954.315   -708.12396    33086.218 
 4820000     299.0999   -16885.692            0   -15007.175   -762.28274    32737.687 
 4830000    300.27347    -16750.41            0   -14864.522   -221.29982    32872.767 
 4840000    297.22116   -16918.532            0   -15051.815   -71.248266    32968.108 
 4850000    293.76513   -16879.997            0   -15034.985    986.10742    32354.352 
 4860000    307.00521   -16955.827            0    -15027.66   -67.495108     32301.52 
 4870000    294.74981   -16855.624            0   -15004.428    18.151027    32583.395 
 4880000      306.067   -16879.737            0   -14957.463    870.53086    32512.387 
 4890000    295.04124   -16796.497            0   -14943.471   -98.192752    33129.245 
 4900000    302.30523   -16915.292            0   -15016.644    515.99369    32611.817 
 4910000    295.87222   -16942.255            0    -15084.01    291.07499     32786.22 
 4920000    299.89333   -16733.791            0    -14850.29   -1006.3395    33085.848 
 4930000    287.29113   -16919.597            0   -15115.246    659.83187    32364.542 
 4940000    299.60725   -16822.583            0    -14940.88   -149.24191    32872.799 
 4950000    295.83118   -16844.932            0   -14986.944   -466.26772    32631.094 
 4960000    295.63369   -16823.387            0    -14966.64   -488.05409    33080.984 
 4970000    302.21071   -16886.768            0   -14988.713     535.0858    32384.144 
 4980000    306.07827   -16760.235            0    -14837.89    571.55603    32848.047 
 4990000     295.8265   -16891.742            0   -15033.784    638.59751    32267.509 
 5000000    296.52548   -16925.216            0   -15062.868    399.38072    32501.933 
Loop time of 5145.79 on 128 procs for 5000000 steps with 3108 atoms

Performance: 167.904 ns/day, 0.143 hours/ns, 971.668 timesteps/s
99.4% CPU use with 128 MPI tasks x no OpenMP threads

MPI task timing breakdown:
Section |  min time  |  avg time  |  max time  |%varavg| %total
---------------------------------------------------------------
Pair    | 1154.8     | 1381.1     | 1596       | 290.9 | 26.84
Bond    | 0.49224    | 0.61293    | 1.0485     |  14.1 |  0.01
Kspace  | 2099.6     | 2311.2     | 2524       | 220.7 | 44.92
Neigh   | 142.87     | 146.35     | 149.9      |  22.5 |  2.84
Comm    | 535.85     | 598.9      | 671.76     | 126.3 | 11.64
Output  | 0.043375   | 0.045481   | 0.04671    |   0.3 |  0.00
Modify  | 521.38     | 624.96     | 672.5      | 139.1 | 12.15
Other   |            | 82.57      |            |       |  1.60

Nlocal:    24.2812 ave 32 max 15 min
Histogram: 2 4 11 12 24 24 17 17 15 2
Nghost:    2881.61 ave 2915 max 2849 min
Histogram: 3 8 7 29 21 22 16 14 3 5
Neighs:    9056.75 ave 12873 max 5919 min
Histogram: 6 7 17 23 30 12 17 9 5 2

Total # of neighbors = 1159264
Ave neighs/atom = 372.994
Ave special neighs/atom = 1.9305
Neighbor list builds = 436472
Dangerous builds = 0
reset_timestep 0

#################### 2) Obtaining average volume in NPT ######################
# Getting the average volume of the system
variable Volume equal vol
fix VoluAve all ave/time 1 ${Npnpt} ${Npnpt} v_Volume file volume.dat
fix VoluAve all ave/time 1 5000000 ${Npnpt} v_Volume file volume.dat
fix VoluAve all ave/time 1 5000000 5000000 v_Volume file volume.dat


# Thermo style for outputing system properties to the log file
thermo_style custom density
thermo_modify flush yes

variable Dens equal density
fix DensAve all ave/time 1 ${NBR} ${NBR} v_Dens file density.dat
fix DensAve all ave/time 1 100000 ${NBR} v_Dens file density.dat
fix DensAve all ave/time 1 100000 100000 v_Dens file density.dat

run ${Npnpt}
run 5000000
PPPM initialization ...
  extracting TIP4P info from pair style
  using 12-bit tables for long-range coulomb (../kspace.cpp:321)
  G vector (1/distance) = 0.31069
  grid = 30 30 30
  stencil order = 5
  estimated absolute RMS force accuracy = 0.00364161
  estimated relative force accuracy = 1.09666e-05
  using double precision FFTs
  3d grid and FFT values/proc = 2475 256
Per MPI rank memory allocation (min/avg/max) = 8.199 | 8.211 | 8.218 Mbytes
Density 
   1.1260867 
   1.1311457 
   1.1112827 
   1.1262685 
   1.1209058 
   1.1131432 
    1.105987 
    1.125724 
   1.1215234 
   1.1125401 
   1.1078571 
   1.1206592 
   1.1186874 
   1.1244627 
   1.1037516 
   1.1292069 
    1.126425 
   1.1228995 
   1.1164094 
   1.1135431 
   1.1248282 
   1.1120834 
   1.1173428 
   1.1042817 
   1.1087608 
   1.1144091 
   1.1139739 
   1.1137621 
   1.1283697 
   1.1375494 
   1.1006028 
   1.1036409 
   1.1237066 
   1.1209849 
   1.1131431 
   1.1192956 
   1.1228278 
   1.1130492 
   1.1314681 
   1.1204376 
   1.1270216 
   1.1194426 
   1.1197271 
   1.1204484 
   1.1217188 
   1.1103039 
   1.1154263 
   1.1157152 
   1.1136144 
   1.1181077 
   1.1309557 
   1.1205032 
   1.1194952 
   1.1267064 
   1.0976963 
   1.1065652 
   1.1252745 
    1.098112 
   1.1095732 
   1.1034564 
   1.1168389 
   1.1046767 
    1.127979 
   1.1211707 
    1.113237 
   1.1023513 
   1.1084285 
   1.1188126 
   1.1206074 
   1.1041641 
   1.1208427 
    1.132352 
   1.1199951 
   1.1195513 
   1.1167936 
   1.1085812 
   1.0913913 
   1.1259773 
   1.1148743 
   1.1163248 
   1.1228992 
   1.1248611 
   1.1047088 
   1.0944386 
   1.1165846 
   1.1189869 
   1.1293759 
   1.1135111 
    1.121397 
   1.1104715 
   1.1093204 
   1.1214666 
   1.1237775 
   1.1255439 
   1.1141637 
   1.1102683 
   1.1248491 
   1.1244858 
   1.1168981 
     1.10502 
   1.1118863 
   1.1232285 
   1.1121087 
   1.1140545 
   1.1117299 
   1.1111795 
   1.1035428 
   1.1011988 
   1.1198586 
   1.1112157 
   1.1084265 
    1.112104 
   1.1144814 
   1.1275436 
   1.1209167 
   1.1006299 
   1.1139016 
   1.1117917 
   1.1218694 
   1.1222489 
   1.1120287 
   1.1320109 
   1.1313778 
   1.1277207 
   1.1206826 
    1.110319 
   1.1082827 
   1.1332693 
   1.1044509 
   1.1284966 
   1.1267329 
   1.1166913 
   1.1096942 
    1.128182 
   1.1261642 
   1.1110233 
   1.1114186 
   1.1017381 
    1.111531 
   1.1132258 
   1.1208509 
   1.1125339 
   1.1233788 
    1.129142 
   1.1117154 
     1.10653 
   1.1239901 
   1.1080627 
   1.1019909 
   1.1144688 
   1.1085022 
   1.0997553 
   1.1143129 
    1.118235 
   1.1160321 
   1.1052702 
   1.1005149 
   1.1149155 
   1.1030613 
   1.1364766 
   1.1151215 
   1.1248401 
   1.1135453 
   1.1155043 
   1.1261443 
   1.1263694 
    1.106978 
   1.1031852 
   1.1239899 
   1.1163981 
   1.1386233 
   1.1206167 
   1.1134129 
   1.1193743 
   1.1230207 
   1.1191435 
   1.1134011 
   1.1217099 
   1.1127589 
   1.1337612 
   1.1118556 
    1.123439 
   1.1252137 
   1.1149499 
   1.1130261 
   1.1111959 
   1.1153412 
   1.1225752 
   1.1189141 
   1.0992376 
   1.1241374 
   1.1057679 
   1.1150544 
   1.1287749 
   1.1203155 
   1.1162165 
   1.1061548 
   1.1151266 
   1.1132922 
   1.1213069 
   1.1269951 
   1.1030133 
   1.1271785 
   1.1276719 
   1.1157075 
   1.1097823 
   1.1076471 
   1.1074287 
   1.1308626 
    1.129115 
   1.1159416 
   1.1294741 
   1.1319102 
   1.1301341 
   1.1016906 
   1.1007725 
   1.1241755 
   1.1241976 
   1.1283723 
   1.1217784 
   1.1152017 
   1.1268866 
   1.1262269 
   1.1096503 
   1.1319914 
   1.1096179 
   1.1107792 
   1.1305958 
   1.1164443 
    1.101758 
   1.1296317 
   1.1224235 
   1.1259488 
   1.1124281 
   1.1231923 
   1.1191597 
   1.1230043 
   1.1181894 
    1.121535 
   1.1064052 
   1.1165778 
   1.1239452 
   1.1295655 
    1.122446 
   1.1212477 
   1.1240713 
   1.1154848 
   1.1213465 
   1.1250558 
   1.1046112 
   1.1238173 
   1.1104714 
   1.1070147 
   1.1103432 
   1.1186545 
   1.1323139 
   1.1213013 
   1.1220426 
   1.1196898 
   1.1117378 
    1.131969 
   1.1256082 
   1.1309155 
   1.1148418 
   1.1219633 
    1.097882 
   1.1222401 
   1.1110583 
   1.1097621 
   1.1213979 
   1.1135194 
   1.1161657 
   1.1132147 
   1.1178924 
   1.1380349 
    1.118096 
   1.1031959 
   1.1187549 
   1.1211723 
   1.1207854 
   1.1235364 
   1.1156958 
   1.1068902 
   1.1224806 
   1.1113614 
   1.1140449 
   1.1052055 
   1.1180199 
   1.1400933 
   1.1218262 
   1.1171586 
   1.1178528 
   1.1316658 
   1.1122211 
   1.1335803 
   1.1331085 
   1.1156859 
   1.1248719 
   1.1165404 
    1.106873 
   1.0960544 
   1.1134464 
   1.0931353 
   1.1008284 
   1.1291877 
   1.1166462 
   1.1107865 
   1.1169184 
    1.128069 
   1.1176065 
   1.1188249 
   1.1363587 
   1.1000283 
   1.1111185 
   1.1245631 
   1.1106352 
    1.123648 
   1.1247747 
   1.0940223 
    1.112467 
     1.11713 
   1.1114706 
   1.1188751 
   1.1113967 
   1.1155012 
   1.1185551 
   1.1264498 
    1.132771 
   1.1118984 
   1.1165099 
   1.1122103 
   1.1148018 
   1.1270183 
   1.1175759 
   1.1183631 
   1.1276411 
   1.1118586 
   1.1106532 
   1.1140413 
   1.1259104 
   1.1278495 
   1.0963429 
   1.1148408 
   1.1237654 
   1.1208003 
    1.112216 
    1.105339 
   1.1041793 
   1.1077034 
   1.1169896 
   1.1329269 
   1.1072888 
   1.1100508 
   1.1209851 
   1.1056849 
   1.1117198 
   1.1178621 
   1.1121454 
   1.1245061 
   1.1135642 
   1.1141145 
   1.1264542 
    1.110167 
   1.1195819 
    1.134402 
   1.1261852 
   1.1303429 
   1.1044659 
   1.1225329 
   1.1195758 
   1.1244595 
    1.118182 
    1.127671 
   1.1151535 
   1.1251406 
   1.1227144 
   1.1125783 
   1.1235705 
   1.1179129 
   1.1151167 
    1.131375 
   1.1070596 
   1.1170751 
   1.1404826 
   1.1177459 
   1.1291409 
   1.1160121 
   1.1211024 
   1.1162016 
   1.1197906 
   1.0954625 
   1.1201227 
   1.1114164 
   1.1244857 
   1.1007564 
   1.1138998 
   1.1038141 
   1.1149073 
   1.1267864 
   1.1281349 
   1.1143783 
   1.1097469 
   1.1262492 
   1.1331869 
   1.1125219 
    1.122701 
   1.1126596 
   1.1243144 
   1.1198852 
   1.1222476 
   1.1188673 
   1.1059331 
   1.1054266 
   1.1158086 
   1.1326587 
   1.1221351 
    1.120406 
   1.1154733 
   1.1139034 
   1.1210171 
   1.1130449 
   1.0940711 
   1.1120759 
    1.109553 
   1.1245362 
   1.1071038 
   1.1234765 
   1.1248439 
   1.1186589 
   1.1197531 
   1.1303226 
   1.1160353 
   1.1089375 
   1.1125988 
   1.1182399 
   1.1115843 
   1.1178197 
   1.1241257 
   1.1183328 
   1.1149791 
   1.1370775 
   1.1253734 
   1.1173278 
   1.1168861 
   1.1209898 
   1.1149853 
   1.1346919 
   1.1192407 
   1.1191756 
   1.1109438 
   1.1038396 
      1.1109 
   1.1160613 
   1.1188037 
   1.1150369 
   1.1300496 
   1.1137871 
   1.1211307 
   1.1178092 
   1.1119518 
    1.110473 
   1.1236182 
   1.1199798 
   1.1073247 
    1.116797 
   1.1180702 
    1.122942 
    1.109364 
   1.1116084 
   1.1234821 
   1.1117548 
   1.1159664 
   1.1058914 
   1.1348922 
   1.1201382 
   1.1253753 
   1.1278611 
    1.125089 
   1.1172367 
   1.1255957 
   1.1092762 
   1.1226115 
   1.1143008 
   1.1125715 
   1.1145179 
   1.1144998 
   1.1319272 
   1.1110693 
   1.1146765 
   1.1128743 
   1.0974252 
   1.1209544 
   1.1155171 
   1.1315789 
   1.1317872 
   1.1109983 
   1.1165366 
   1.1111647 
    1.113055 
   1.1087303 
   1.1147723 
Loop time of 5224.9 on 128 procs for 5000000 steps with 3108 atoms

Performance: 165.362 ns/day, 0.145 hours/ns, 956.957 timesteps/s
99.4% CPU use with 128 MPI tasks x no OpenMP threads

MPI task timing breakdown:
Section |  min time  |  avg time  |  max time  |%varavg| %total
---------------------------------------------------------------
Pair    | 1141       | 1377.6     | 1601.1     | 290.5 | 26.37
Bond    | 0.49925    | 0.62017    | 1.1056     |  14.4 |  0.01
Kspace  | 2108.9     | 2328.8     | 2542.7     | 219.2 | 44.57
Neigh   | 141.31     | 145.71     | 149.88     |  27.5 |  2.79
Comm    | 536.78     | 603.17     | 679.22     | 134.8 | 11.54
Output  | 0.023869   | 0.058771   | 0.076124   |   1.8 |  0.00
Modify  | 581.09     | 685        | 733.98     | 133.6 | 13.11
Other   |            | 83.94      |            |       |  1.61

Nlocal:    24.2812 ave 34 max 15 min
Histogram: 1 6 10 20 25 36 19 8 2 1
Nghost:    2859.85 ave 2885 max 2833 min
Histogram: 10 7 9 12 19 18 24 13 6 10
Neighs:    8975.56 ave 12504 max 5147 min
Histogram: 4 5 8 19 19 29 23 7 9 5

Total # of neighbors = 1148872
Ave neighs/atom = 369.65
Ave special neighs/atom = 1.9305
Neighbor list builds = 436469
Dangerous builds = 0
reset_timestep 0

#################### 3) Initializing the NVT ensemble ####################
# scaling the size of the system to the average volume
variable sidesize equal (f_VoluAve^(1.0/3.0))    # get the volume
variable xlow equal xlo
variable ylow equal ylo
variable zlow equal zlo
variable xhig equal (xlo+${sidesize})
variable xhig equal (xlo+31.9946639173887)
variable yhig equal (ylo+${sidesize})
variable yhig equal (ylo+31.9946639173887)
variable zhig equal (zlo+${sidesize})
variable zhig equal (zlo+31.9946639173887)
change_box all x final ${xlow} ${xhig} y final ${ylow} ${yhig} z final ${zlow} ${zhig}
change_box all x final 0.62041562075736 ${xhig} y final ${ylow} ${yhig} z final ${zlow} ${zhig}
change_box all x final 0.62041562075736 32.6150795381461 y final ${ylow} ${yhig} z final ${zlow} ${zhig}
change_box all x final 0.62041562075736 32.6150795381461 y final 0.62041562075736 ${yhig} z final ${zlow} ${zhig}
change_box all x final 0.62041562075736 32.6150795381461 y final 0.62041562075736 32.6150795381461 z final ${zlow} ${zhig}
change_box all x final 0.62041562075736 32.6150795381461 y final 0.62041562075736 32.6150795381461 z final 0.62041562075736 ${zhig}
change_box all x final 0.62041562075736 32.6150795381461 y final 0.62041562075736 32.6150795381461 z final 0.62041562075736 32.6150795381461
  orthogonal box = (0.620416 0.620416 0.620416) to (32.6151 32.6412 32.6412)
  orthogonal box = (0.620416 0.620416 0.620416) to (32.6151 32.6151 32.6412)
  orthogonal box = (0.620416 0.620416 0.620416) to (32.6151 32.6151 32.6151)
unfix DensAve
unfix VoluAve

# changing the ensemble to NVT
unfix integrate
fix integrate all nvt temp ${Temp} ${Temp} 100.0
fix integrate all nvt temp 298 ${Temp} 100.0
fix integrate all nvt temp 298 298 100.0


# Initializing the whole system with very small timesteps in the NVT ensemble
timestep 0.001
run ${Ninvtpre}
run 10000
PPPM initialization ...
  extracting TIP4P info from pair style
  using 12-bit tables for long-range coulomb (../kspace.cpp:321)
  G vector (1/distance) = 0.310506
  grid = 30 30 30
  stencil order = 5
  estimated absolute RMS force accuracy = 0.00366939
  estimated relative force accuracy = 1.10503e-05
  using double precision FFTs
  3d grid and FFT values/proc = 2475 256
Per MPI rank memory allocation (min/avg/max) = 8.199 | 8.211 | 8.218 Mbytes
Density 
   1.1175021 
   1.1175021 
Loop time of 7.54448 on 128 procs for 10000 steps with 3108 atoms

Performance: 0.115 ns/day, 209.569 hours/ns, 1325.472 timesteps/s
99.5% CPU use with 128 MPI tasks x no OpenMP threads

MPI task timing breakdown:
Section |  min time  |  avg time  |  max time  |%varavg| %total
---------------------------------------------------------------
Pair    | 1.177      | 2.0567     | 2.9321     |  24.1 | 27.26
Bond    | 0.00071853 | 0.0008681  | 0.0015818  |   0.0 |  0.01
Kspace  | 2.8039     | 3.6387     | 4.4788     |  17.8 | 48.23
Neigh   | 0          | 0          | 0          |   0.0 |  0.00
Comm    | 0.94833    | 1.0483     | 1.108      |   3.5 | 13.89
Output  | 1.9917e-05 | 2.6491e-05 | 6.2447e-05 |   0.0 |  0.00
Modify  | 0.61813    | 0.69205    | 0.74244    |   3.6 |  9.17
Other   |            | 0.1079     |            |       |  1.43

Nlocal:    24.2812 ave 32 max 15 min
Histogram: 1 2 14 7 27 36 9 19 11 2
Nghost:    2865.79 ave 2891 max 2841 min
Histogram: 5 10 17 18 10 17 17 17 13 4
Neighs:    8988.91 ave 12840 max 5218 min
Histogram: 2 5 15 17 29 24 18 9 5 4

Total # of neighbors = 1150581
Ave neighs/atom = 370.2
Ave special neighs/atom = 1.9305
Neighbor list builds = 0
Dangerous builds = 0
timestep 0.01
run ${Ninvtpre}
run 10000
PPPM initialization ...
  extracting TIP4P info from pair style
  using 12-bit tables for long-range coulomb (../kspace.cpp:321)
  G vector (1/distance) = 0.310506
  grid = 30 30 30
  stencil order = 5
  estimated absolute RMS force accuracy = 0.00366939
  estimated relative force accuracy = 1.10503e-05
  using double precision FFTs
  3d grid and FFT values/proc = 2475 256
Per MPI rank memory allocation (min/avg/max) = 8.199 | 8.211 | 8.218 Mbytes
Density 
   1.1175021 
   1.1175021 
Loop time of 7.66342 on 128 procs for 10000 steps with 3108 atoms

Performance: 1.127 ns/day, 21.287 hours/ns, 1304.900 timesteps/s
99.4% CPU use with 128 MPI tasks x no OpenMP threads

MPI task timing breakdown:
Section |  min time  |  avg time  |  max time  |%varavg| %total
---------------------------------------------------------------
Pair    | 1.1396     | 2.0528     | 2.9469     |  23.0 | 26.79
Bond    | 0.00072407 | 0.00087522 | 0.0015416  |   0.0 |  0.01
Kspace  | 2.8752     | 3.7533     | 4.6255     |  16.8 | 48.98
Neigh   | 0.0012457  | 0.0012644  | 0.0012922  |   0.0 |  0.02
Comm    | 0.9534     | 1.0596     | 1.1335     |   3.6 | 13.83
Output  | 2.112e-05  | 3.0993e-05 | 7.5671e-05 |   0.0 |  0.00
Modify  | 0.61398    | 0.68259    | 0.73265    |   3.7 |  8.91
Other   |            | 0.1129     |            |       |  1.47

Nlocal:    24.2812 ave 32 max 14 min
Histogram: 1 1 7 12 14 30 34 18 8 3
Nghost:    2869.44 ave 2908 max 2843 min
Histogram: 9 11 22 22 27 12 12 8 3 2
Neighs:    8989.02 ave 12769 max 4565 min
Histogram: 1 2 7 14 25 30 29 13 4 3

Total # of neighbors = 1150595
Ave neighs/atom = 370.204
Ave special neighs/atom = 1.9305
Neighbor list builds = 4
Dangerous builds = 0
timestep 0.1
run ${Ninvtpre}
run 10000
PPPM initialization ...
  extracting TIP4P info from pair style
  using 12-bit tables for long-range coulomb (../kspace.cpp:321)
  G vector (1/distance) = 0.310506
  grid = 30 30 30
  stencil order = 5
  estimated absolute RMS force accuracy = 0.00366939
  estimated relative force accuracy = 1.10503e-05
  using double precision FFTs
  3d grid and FFT values/proc = 2475 256
Per MPI rank memory allocation (min/avg/max) = 8.199 | 8.211 | 8.218 Mbytes
Density 
   1.1175021 
   1.1175021 
Loop time of 8.02217 on 128 procs for 10000 steps with 3108 atoms

Performance: 10.770 ns/day, 2.228 hours/ns, 1246.546 timesteps/s
99.4% CPU use with 128 MPI tasks x no OpenMP threads

MPI task timing breakdown:
Section |  min time  |  avg time  |  max time  |%varavg| %total
---------------------------------------------------------------
Pair    | 1.55       | 2.0569     | 2.6515     |  18.3 | 25.64
Bond    | 0.00070653 | 0.00087052 | 0.0015153  |   0.0 |  0.01
Kspace  | 3.5052     | 4.0855     | 4.6176     |  12.9 | 50.93
Neigh   | 0.013648   | 0.014238   | 0.01442    |   0.1 |  0.18
[...]
98160000    290.47239    298.01846   0.14247905     33.31248   -16847.983    1824.3313   -15023.652 
98170000    297.13624    297.93617   -587.73161    21.050765   -16881.979     1866.184   -15015.795 
98180000    298.87286    298.35102     41.65855    -70.17007   -16891.366     1877.091   -15014.275 
98190000    288.31575    297.54639    195.09806   -41.817858   -16889.191    1810.7863   -15078.405 
98200000    299.58636    298.18862   -824.13407   -8.0553797   -16890.375    1881.5721   -15008.803 
98210000    298.34304    297.62014     12.25508    37.423033   -16833.529    1873.7634   -14959.765 
98220000    299.79349    298.58532    296.83125   -20.680051   -16879.478     1882.873   -14996.605 
98230000    303.07615    298.21666    48.662637    55.849068   -16829.357      1903.49   -14925.867 
98240000    291.51456    298.10457   -649.51047    48.808753   -16811.367    1830.8766    -14980.49 
98250000    300.56882     298.2888   -399.23933   -66.248471   -16894.916    1887.7426   -15007.173 
98260000    285.85979    297.93863     -390.448    7.7815847   -16815.997    1795.3615   -15020.636 
98270000    283.07113     298.2076   -133.27602     39.52284    -16735.44    1777.8472   -14957.593 
98280000    296.05909    297.92488    279.07467   -2.3822678   -16776.217    1859.4189   -14916.798 
98290000    281.20131     298.2484   -199.38293   -36.362915   -16851.964    1766.1036    -15085.86 
98300000    294.82894    298.07899   -73.851171   -3.7404173   -16825.848    1851.6928   -14974.155 
98310000    287.63979     298.1617     231.0404   -12.268423     -16855.6    1806.5409    -15049.06 
98320000     302.9604    297.75335    184.74157   -71.599775   -16903.557     1902.763   -15000.794 
98330000    297.55352    297.71499   -334.30718   -34.023111   -16899.017    1868.8048   -15030.212 
98340000    288.70216    298.69986    491.89285   -9.3270081   -16785.459    1813.2132   -14972.246 
98350000    299.11951    297.99998    430.72433    34.930448    -16817.09      1878.64    -14938.45 
98360000    290.02241    298.12952    144.24205    68.995413   -16831.616    1821.5051   -15010.111 
98370000    303.09463    297.81382    374.40666   -5.5431143   -16903.746    1903.6061    -15000.14 
98380000    296.08119    297.74155   -467.27988   -7.1103407   -16844.578    1859.5577    -14985.02 
98390000    303.03227    297.97222   -508.06743    16.415378    -16819.37    1903.2144   -14916.156 
98400000    294.86225     298.2066   -139.02796    38.797896   -16854.135    1851.9021   -15002.233 
98410000     299.7306    298.38171   -36.732934   -1.3796827   -16893.282    1882.4781   -15010.804 
98420000    300.84192    298.05687   -473.85853   -13.587716   -16826.506    1889.4578   -14937.049 
98430000    302.35445    297.85731    -443.8931   -65.464706   -16831.489    1898.9573   -14932.532 
98440000    288.02285    298.57897     -200.539   -4.3923606   -16843.273    1808.9467   -15034.327 
98450000    297.54764    298.12892    263.26266    43.557819   -16857.505    1868.7678   -14988.737 
98460000    303.34208    298.42706    738.00362   -35.815766   -16830.358    1905.1602   -14925.198 
98470000     308.3687    298.31321    140.72774   -56.585151   -16891.248    1936.7302   -14954.518 
98480000    301.77597    297.57032   -98.516102   -6.6792019   -16804.634    1895.3241    -14909.31 
98490000    299.54913    298.10098   -82.136713    94.192109   -16933.279    1881.3383   -15051.941 
98500000    298.03705    298.01275   -453.05621   -4.3162582   -16921.381    1871.8416   -15049.539 
98510000    298.65949    297.56919    51.912406    35.171907    -16844.95    1875.7509   -14969.199 
98520000     308.5961    297.66931    142.97003    77.762069   -16912.735    1938.1584   -14974.576 
98530000    296.08149    298.40026    503.21049   -51.023672   -16950.695    1859.5596   -15091.135 
98540000    293.24436    297.73139    -125.1357   -28.232137   -16829.085    1841.7408   -14987.344 
98550000    303.64547    297.57822   -267.79706   -3.2174115   -16815.039    1907.0656   -14907.974 
98560000    303.96386    297.72041    174.99673    21.732555   -16776.193    1909.0653   -14867.128 
98570000    304.90634    297.99306   -259.72948   -74.015557   -16808.397    1914.9847   -14893.413 
98580000    297.52364    297.87099    -32.16962   -22.640094   -16798.167    1868.6171    -14929.55 
98590000    297.90782    297.52816    44.330988    44.411686   -16888.553      1871.03   -15017.524 
98600000    300.81779    297.91418    359.05938   -60.891555   -16967.464    1889.3062   -15078.157 
98610000    290.46527    298.04519   -437.36748    35.424307   -16852.904    1824.2865   -15028.617 
98620000    293.71834    298.15942   -93.696209      76.9311   -16895.484    1844.7176   -15050.767 
98630000    306.13363    297.98698    276.04211    -20.75089   -16850.363    1922.6927   -14927.671 
98640000    288.95286    298.09284    -197.8568    -52.27619    -16886.68    1814.7877   -15071.892 
98650000    297.75501    297.86851   -8.4348483   -36.272638   -16817.861    1870.0702   -14947.791 
98660000    299.68816    298.00297    136.96539   -43.710349    -16847.59    1882.2115   -14965.379 
98670000    297.15684    298.40057    176.40132    57.162013   -16878.116    1866.3134   -15011.802 
98680000    301.31144    298.06663    316.27094    102.44463   -16829.477    1892.4066    -14937.07 
98690000    297.34146    297.80893   -902.54276    65.707584   -16910.228    1867.4729   -15042.755 
98700000    301.38369    298.14494    99.785189    44.971084   -16814.821    1892.8604    -14921.96 
98710000    301.52029    298.20427   -29.923994   0.69460945   -16861.118    1893.7183     -14967.4 
98720000    296.44069    298.27776    399.44195    6.2056065   -16866.697    1861.8155   -15004.881 
98730000    300.77732    298.63807    195.57318   -75.474214   -16848.081     1889.052   -14959.029 
98740000    299.21362    297.69021    234.25428   -80.487883    -16830.98    1879.2311   -14951.749 
98750000    306.98864      298.709   -225.46975   -30.417308   -16894.516    1928.0626   -14966.454 
98760000    297.20531    297.97999    213.73682   -7.8786059   -16855.141    1866.6178   -14988.523 
98770000    301.25944    297.94536     605.9138    27.681986   -16926.859      1892.08   -15034.779 
98780000    297.78368    297.79954    198.81678   -60.610006   -16837.004    1870.2503   -14966.754 
98790000    292.52519    297.59069   -76.424166   -37.669568   -16828.679     1837.224   -14991.455 
98800000    297.28262    297.95403    249.90132    -29.05378   -16866.033    1867.1033    -14998.93 
98810000    296.76039    298.08754    1185.6496    49.591483   -16931.265    1863.8235   -15067.442 
98820000    295.27233    298.21132    82.597183    180.47346   -16903.778    1854.4776   -15049.301 
98830000    299.55877    298.25318    589.24289   -100.55739   -16832.337    1881.3989   -14950.938 
98840000    294.23025    297.97926    63.091385    27.014699   -16861.235    1847.9327   -15013.302 
98850000    300.13459    297.63664    12.651588    6.5425007    -16797.56    1885.0153   -14912.544 
98860000    297.33157    298.08337    158.49394    36.761692   -16834.816    1867.4108   -14967.405 
98870000    305.18708    297.91179    584.66115    78.805382   -16883.107    1916.7479   -14966.359 
98880000    298.14693     297.8222    309.14758    31.408783   -16821.197    1872.5317   -14948.665 
98890000    294.52574    298.10836    142.60185    12.146789   -16815.331    1849.7886   -14965.542 
98900000    301.81003    298.59263   -618.02146    109.60269   -16886.715     1895.538   -14991.177 
98910000    301.23068     297.7335    204.14049   -32.428007   -16790.184    1891.8994   -14898.285 
98920000    295.89028     297.8506    45.410573    -18.66716   -16797.029    1858.3587   -14938.671 
98930000    305.44616    298.62749    492.54066    32.067592   -16788.149     1918.375   -14869.774 
98940000    296.11049    298.24212   -468.24221   -38.685041   -16841.885    1859.7417   -14982.143 
98950000     295.9349    298.04861   -914.02571   -54.262361   -16846.488    1858.6389   -14987.849 
98960000    301.32921    298.07715    32.238601   -35.778367    -16852.75    1892.5182   -14960.232 
98970000    291.90391    297.78845   -192.07812   -9.6481936   -16803.852     1833.322    -14970.53 
98980000     292.0448      298.164   -822.98891   -18.001626   -16889.544    1834.2069   -15055.337 
98990000    297.14759    298.40561   -657.18365   -65.841568   -16850.037    1866.2553   -14983.782 
99000000     296.7728    298.30268   -483.10634   -58.843021   -16792.131    1863.9014   -14928.229 
99010000    300.49037    297.31134   -907.25758   -6.3209925   -16838.047    1887.2498   -14950.797 
99020000    308.56756    297.68705   -507.38747    22.967263   -16866.379    1937.9792     -14928.4 
99030000    308.74534    298.13782   -440.97488   -29.529837   -16890.258    1939.0957   -14951.162 
99040000    298.35896    297.82122    395.71325   -20.680125   -16839.923    1873.8634   -14966.059 
99050000    290.02662    297.36744   -167.02687   -88.839177   -16786.339    1821.5315   -14964.808 
99060000    299.14155    297.92641    133.90397    37.296432   -16879.848    1878.7785   -15001.069 
99070000    304.00881    297.82921    379.90997   -86.020087   -16894.091    1909.3476   -14984.743 
99080000    297.60102    298.08847    15.430932   -21.270662   -16858.469    1869.1031   -14989.366 
99090000    307.41408    298.12268   -272.43014     68.61542   -16898.813    1930.7346   -14968.078 
99100000    299.62789    298.52651    204.57458   -83.297838   -16762.375    1881.8329   -14880.542 
99110000    293.38101    297.87725    132.82058    51.032913    -16926.32     1842.599   -15083.721 
99120000    300.26437    297.80216    -314.9175    33.462605   -16844.548    1885.8304   -14958.717 
99130000    298.52005    298.33821     253.5781   -3.5972301   -16825.531    1874.8751   -14950.656 
99140000    315.24308    298.22418    256.21171   -46.195624   -16816.096    1979.9052    -14836.19 
99150000    292.43223    298.20853    22.762476    145.63156   -16889.848    1836.6401   -15053.208 
99160000    297.66884    298.17191   -1010.0567    26.229306   -16923.353     1869.529   -15053.824 
99170000    298.92097    298.07034   -595.98257    -59.17138    -16937.03    1877.3931   -15059.637 
99180000    302.30801    298.00086    390.01858    18.649277    -16856.12    1898.6657   -14957.455 
99190000    295.97751    297.44277    465.31557    38.060135   -16905.822    1858.9065   -15046.915 
99200000    302.39921    297.77297    189.20357    51.275221   -16803.763    1899.2385   -14904.525 
99210000    291.11347    297.89627   -266.00385   -43.626292   -16904.311    1828.3576   -15075.953 
99220000    307.43923    297.79811    212.82016   -6.9229896   -16822.828    1930.8926   -14891.935 
99230000      298.093     297.6938   -438.39196    50.395149    -16918.47     1872.193   -15046.277 
99240000    295.65713    298.27931    262.80005    60.131237   -16811.796    1856.8943   -14954.901 
99250000    299.09715    298.32992    693.96274   -51.931702   -16876.191    1878.4996   -14997.691 
99260000    296.08007    298.15003    287.24662    12.420402   -16803.995    1859.5507   -14944.445 
99270000    298.13297      298.133   -119.87762     56.86958   -16941.589     1872.444   -15069.145 
99280000    298.74037    297.98475   -478.98455   -22.593381   -16853.256    1876.2588   -14976.997 
99290000    293.54834    297.97061    189.34767     32.67784   -16877.491      1843.65   -15033.841 
99300000    292.85146    298.11043   -232.35457    13.656612   -16786.718    1839.2732   -14947.445 
99310000    296.50452    298.11199   -468.61774   -60.617162   -16807.436    1862.2164    -14945.22 
99320000    298.92737    298.23176    508.71856    11.147629   -16812.598    1877.4333   -14935.165 
99330000    300.93518    297.90318    383.34593   -31.503771   -16835.632    1890.0435   -14945.589 
99340000    305.65748    297.63605    394.54057   -62.620553    -16828.71    1919.7022   -14909.008 
99350000    297.23322    298.07111   -243.20678    12.861982   -16875.462    1866.7931   -15008.669 
99360000    294.58162    297.73528   -962.10533   -56.909221   -16988.175    1850.1395   -15138.035 
99370000    291.33749    297.41035    194.86536    7.8441112   -16832.861    1829.7645   -15003.096 
99380000    292.78866    297.92097    -203.2437    53.244245   -16745.447    1838.8788   -14906.568 
99390000     305.2594    298.08432   -256.25422   -49.844037   -16899.712     1917.202    -14982.51 
99400000    292.52266    297.92453   -371.01425   -38.759315   -16980.204    1837.2081   -15142.996 
99410000    293.73115    297.29431    360.03706    97.753231   -16882.936    1844.7981   -15038.138 
99420000     292.8725     298.0012    563.69365   -16.261985   -16799.888    1839.4053   -14960.483 
99430000    294.84839    298.13245   -336.94643    56.794511    -16918.89     1851.815   -15067.075 
99440000    297.77082    298.29857   -255.56061    37.023521   -16802.211    1870.1695   -14932.041 
99450000    298.66326    297.43441   -74.351835   -42.970898   -16775.642    1875.7746   -14899.867 
99460000    297.78376    298.57978   -227.42632    -45.01843   -16827.938    1870.2508   -14957.687 
99470000    298.08024    298.12289   -268.98621   -93.078741   -16847.975    1872.1128   -14975.862 
99480000    303.40979    297.52333    167.72823   -50.413219   -16895.086    1905.5854   -14989.501 
99490000    308.12654     298.2018    280.03883   -5.8314752   -16801.795    1935.2093   -14866.586 
99500000    293.04106    298.94101   -99.671845   -122.51116   -16785.923     1840.464   -14945.459 
99510000    293.41034    297.86045   -789.18488    52.746018    -16870.16    1842.7832   -15027.377 
99520000    288.98499    297.85823   -167.41422   -34.866405   -16850.489    1814.9895     -15035.5 
99530000    289.05843     297.8981   -74.285809   -54.591609   -16838.537    1815.4508   -15023.087 
99540000    293.54067    297.87516   -655.54561   -28.463447    -16776.44    1843.6018   -14932.838 
99550000    295.68562    298.25725   -433.00496   -4.3836724   -16803.903    1857.0733   -14946.829 
99560000    298.22334    297.94255    226.02879   -75.486364   -16842.998    1873.0116   -14969.986 
99570000    296.15482    297.86363   -66.393691    113.42898   -16864.988    1860.0201   -15004.968 
99580000    298.29808    297.66582   -587.26401    45.593005   -16912.203     1873.481   -15038.722 
99590000    299.02456    297.90769    391.28752   -39.293321   -16820.995    1878.0437   -14942.951 
99600000    299.68854    298.02206    172.39274   -84.507119    -16817.42    1882.2139   -14935.206 
99610000    301.82665     298.2448   -279.62077   -23.811364   -16795.606    1895.6424   -14899.963 
99620000     300.9429    297.80758   -380.33875    -42.35323    -16840.08     1890.092   -14949.988 
99630000    289.19864     297.6769    515.29856   -126.87199   -16854.933    1816.3313   -15038.602 
99640000    299.05313    297.94952    299.11176      60.6247   -16840.502    1878.2231   -14962.279 
99650000    303.11549    297.88805    112.90165   -3.8520242   -16837.743    1903.7371   -14934.006 
99660000    295.83018    297.91199   -345.51127     47.51155   -16849.461    1857.9812    -14991.48 
99670000    292.08915    297.63182   -116.94779       31.915   -16854.949    1834.4854   -15020.464 
99680000    301.03075    297.81327    -207.9294   -28.626736   -16804.355    1890.6437   -14913.711 
99690000    286.39775    298.22416    -302.0272   -57.464195   -16915.163    1798.7402   -15116.423 
99700000    302.13504    297.84429    873.36066    -10.73924   -16882.697    1897.5793   -14985.118 
99710000    298.22675    297.79203    72.850998    37.863645   -16814.309     1873.033   -14941.276 
99720000     301.2614    297.82543   -549.81563   -15.959381   -16970.001    1892.0923   -15077.909 
99730000    289.77858    297.81623    211.03822   0.82308432   -16824.934    1819.9737    -15004.96 
99740000     303.6066    297.92217   -111.88243   -15.187688   -16870.535    1906.8215   -14963.713 
99750000    297.87728    297.70603    589.06047   -4.8122332   -16912.191    1870.8381   -15041.353 
99760000    283.54044    297.99297   -51.841438   -72.786588   -16872.358    1780.7947   -15091.564 
99770000    298.35797    297.95974    343.45005    66.506133   -16887.543    1873.8571   -15013.686 
99780000    309.44577     298.2016   -45.682077   -67.328127   -16894.187    1943.4948   -14950.692 
99790000    288.91276    298.14626     181.7711    7.0243821   -16848.944    1814.5359   -15034.408 
99800000    301.95578    298.07023    225.43395     65.15051   -16926.833    1896.4534    -15030.38 
99810000    301.52791    298.51261    580.95157    14.245727   -16838.304    1893.7661   -14944.538 
99820000    291.54948    298.10438    19.434869    28.511479   -16881.565     1831.096   -15050.469 
99830000    302.98804    298.28153    121.14985    31.155356   -16874.765    1902.9366   -14971.828 
99840000    297.48618    298.00489   -296.90208    13.972704   -16877.901    1868.3818   -15009.519 
99850000    298.24187    297.96837   -408.87686    10.686127   -16819.358     1873.128    -14946.23 
99860000    293.41595    297.91911   -635.42575   -97.409075   -16838.271    1842.8185   -14995.453 
99870000    297.39311    297.73615   -555.32502   -15.086334   -16935.005    1867.7973   -15067.208 
99880000    291.21928    297.76614   -120.05229   -86.992301   -16830.985    1829.0221   -15001.963 
99890000    296.37484    297.75676   -297.81512   -29.569262   -16823.244    1861.4019   -14961.842 
99900000    295.01277     297.9843    -45.85571    78.525091   -16881.776    1852.8474   -15028.928 
99910000    307.83032    298.06606   -559.72456    22.693591     -16781.9    1933.3489   -14848.552 
99920000    302.11022    297.92932    359.22503    3.3296918   -16798.687    1897.4234   -14901.264 
99930000    299.75702     298.1239   -115.12843   -86.021661   -16804.941     1882.644   -14922.297 
99940000    297.27436    297.61921    7.3832073    54.373302   -16853.734    1867.0515   -14986.683 
99950000     298.6855    298.08588    13.436822   -12.475207   -16854.363    1875.9142   -14978.449 
99960000    300.03423    298.56321    25.043844   -23.973641   -16912.784     1884.385   -15028.399 
99970000    301.95736    298.29449   -297.37829    38.419406   -16810.684    1896.4634   -14914.221 
99980000    296.25306    297.58386   -332.60583    28.871484   -16891.372    1860.6371   -15030.735 
99990000    290.84125    297.98978    -272.1438   -95.393163   -16873.321    1826.6479   -15046.673 
100000000     298.1808    297.93152   -676.00483   -38.005605   -16972.893    1872.7444   -15100.149 
Loop time of 91811.6 on 128 procs for 100000000 steps with 3108 atoms

Performance: 188.211 ns/day, 0.128 hours/ns, 1089.187 timesteps/s
99.4% CPU use with 128 MPI tasks x no OpenMP threads

MPI task timing breakdown:
Section |  min time  |  avg time  |  max time  |%varavg| %total
---------------------------------------------------------------
Pair    | 19411      | 23080      | 26596      |1162.1 | 25.14
Bond    | 8.875      | 10.367     | 17.304     |  54.6 |  0.01
Kspace  | 38998      | 42399      | 46037      | 864.3 | 46.18
Neigh   | 2886.3     | 2916.5     | 2946.7     |  29.2 |  3.18
Comm    | 11458      | 12299      | 12977      | 332.8 | 13.40
Output  | 3.8546     | 85.134     | 100.8      | 171.0 |  0.09
Modify  | 8830.6     | 9502.5     | 10126      | 328.2 | 10.35
Other   |            | 1518       |            |       |  1.65

Nlocal:    24.2812 ave 33 max 15 min
Histogram: 1 6 6 21 20 31 24 12 5 2
Nghost:    2862.46 ave 2917 max 2833 min
Histogram: 11 23 21 23 23 12 6 5 3 1
Neighs:    8987.64 ave 13062 max 4794 min
Histogram: 1 4 9 20 26 29 25 11 1 2

Total # of neighbors = 1150418
Ave neighs/atom = 370.147
Ave special neighs/atom = 1.9305
Neighbor list builds = 8646653
Dangerous builds = 0

quit
