3108
Atoms. Timestep: 0
O 3.77422 18.5324 26.1479
H 3.67334 17.8184 25.5184
H 4.52884 19.028 25.8298
O 5.25648 31.4603 10.2865
H 4.34502 31.7301 10.1739
H 5.55923 31.9506 11.0508
O 8.97256 7.47046 13.3505
H 8.05233 7.53382 13.0948
H 9.40312 7.06367 12.5986
O 22.1044 6.30929 4.74179
H 22.8215 6.35001 5.37457
H 21.5178 7.02102 4.99772
O 16.5793 29.8248 22.4087
H 16.7425 29.1088 21.7948
H 15.6478 30.0204 22.3071
O 3.75053 2.60679 17.9971
H 3.35634 3.38289 17.599
H 3.00561 2.08951 18.3033
O 15.6733 12.5802 8.88237
H 16.2584 13.2822 9.16729
H 14.7979 12.965 8.92573
O 25.4758 8.06455 6.5334
H 25.2423 7.15838 6.73475
H 26.4079 8.03 6.31813
O 5.37426 9.7732 19.8497
H 4.69118 10.2622 19.3909
H 6.10256 9.73889 19.2295
O 2.87103 20.0826 14.2375
H 1.9877 20.3324 14.5088
H 2.81626 19.14 14.0801
O 7.58102 2.19195 24.2287
H 8.53536 2.1269 24.1936
H 7.36451 2.05004 25.1502
O 7.23763 28.3058 20.126
H 6.4074 28.7522 20.2925
H 7.771 28.9546 19.6668
O 13.3795 1.83473 13.6429
H 12.9632 1.36511 14.3656
H 14.1973 1.36165 13.4887
O 9.12591 6.33353 9.04051
H 9.63549 7.10141 8.78185
H 8.27022 6.68504 9.28639
O 16.189 29.1065 29.5769
H 16.2987 28.5872 30.3735
H 15.3985 28.7543 29.1678
O 4.18121 28.5226 2.20282
H 4.90687 28.6259 1.5872
H 4.45553 27.8097 2.77968
O 11.6047 13.3971 1.92289
H 10.8953 13.2443 2.54712
H 12.2019 13.9902 2.37877
O 29.6861 23.3899 6.10486
H 28.8847 22.9064 5.90427
H 29.7706 23.3301 7.05645
O 14.7782 21.2537 31.5016
H 14.6147 20.4032 31.0939
H 15.4786 21.0869 32.1322
O 29.3028 17.8796 15.8277
H 28.9617 18.7356 16.0866
H 30.0185 17.7111 16.4406
O 22.0251 5.92705 10.1889
H 21.0758 5.85849 10.2904
H 22.3627 5.93035 11.0846
O 25.0365 27.9252 6.6802
H 25.0184 28.882 6.69825
H 24.1156 27.6669 6.71919
O 28.1903 1.99356 27.6473
H 27.7963 2.73536 28.1064
H 28.3233 2.30793 26.753
O 12.6927 17.2779 8.68687
H 13.3707 17.0325 9.31641
H 12.5098 16.4714 8.20476
O 23.4145 25.4143 4.25672
H 23.6607 24.4898 4.22404
H 22.7922 25.4714 4.98174
O 1.20386 2.0022 31.2838
H 1.21072 2.26529 30.3635
H 1.19056 1.04539 31.2598
O 8.70848 4.81353 28.2522
H 9.30614 5.26982 27.6599
H 8.39351 5.49439 28.8467
O 22.1715 30.9685 30.6396
H 21.8533 31.6855 30.0911
H 23.0961 31.1695 30.7846
O 27.7834 29.115 4.76459
H 27.7579 30.0023 5.12269
H 28.1249 28.5775 5.47924
O 1.09933 13.4058 22.9922
H 0.857096 13.4378 23.9177
H 0.934852 14.2921 22.6703
O 7.36952 21.3027 18.6852
H 8.10753 20.7044 18.8023
H 6.76819 21.0842 19.3972
O 17.0986 21.712 8.11114
H 17.6654 21.7122 8.88242
H 16.7317 22.5956 8.08273
O 26.6883 18.7427 23.3889
H 26.9194 19.6692 23.3228
H 26.6204 18.5788 24.3295
O 16.3591 11.8829 21.2665
H 16.3807 12.8333 21.3781
H 16.1656 11.543 22.1402
O 7.37319 23.6237 24.2595
H 7.77277 24.3878 24.6752
H 6.49258 23.9134 24.021
O 23.6883 2.41874 10.8833
H 22.9023 2.45766 11.4281
H 24.1141 1.5991 11.1345
O 7.80187 28.3112 2.43312
H 8.70716 28.4242 2.14343
H 7.29617 28.2517 1.62259
O 6.70024 7.91509 6.03497
H 6.43125 7.6343 6.90964
H 6.40257 8.82265 5.97215
O 4.48466 8.39464 24.6015
H 4.75117 9.28162 24.8433
H 3.96434 8.5088 23.8062
O 32.1598 1.23302 7.59564
H 31.4201 1.46234 7.03309
H 32.3384 2.03037 8.09421
O 16.4124 8.65023 3.52741
H 16.0687 7.80135 3.24906
H 15.6989 9.04554 4.02827
O 32.3487 23.9595 3.86002
H 32.5224 23.8777 4.79777
H 32.2687 24.9018 3.71208
O 2.33265 11.7227 4.66786
H 2.38204 10.7693 4.73831
H 2.2307 12.025 5.57031
O 27.2657 19.4494 2.4171
H 26.4673 19.3377 1.90103
H 27.1932 18.7988 3.11536
O 23.6354 25.2156 10.5051
H 22.8986 25.0687 11.0981
H 23.6771 26.1666 10.4049
O 6.92296 4.00386 26.5048
H 7.37729 4.39498 27.251
H 6.03872 4.36825 26.5443
O 20.4124 24.535 3.37442
H 20.209 24.4871 2.44031
H 21.1384 23.9227 3.49363
O 16.0054 20.0406 5.02802
H 15.6696 20.8734 5.35954
H 15.2339 19.5908 4.68342
O 25.4558 21.3993 20.6089
H 25.674 22.2879 20.3278
H 26.0446 20.837 20.1055
O 13.7136 30.3525 8.24633
H 13.1759 31.1437 8.21446
H 13.0994 29.6538 8.47182
O 17.1797 8.15273 21.1595
H 16.7222 7.4416 20.7109
H 16.8955 8.08352 22.071
O 9.78187 5.74294 18.1544
H 9.73502 5.58502 17.2115
H 10.7188 5.79941 18.342
O 23.8412 4.98035 0.651248
H 23.1311 4.81105 1.2703
H 23.5465 5.74063 32.1446
O 7.40858 15.5888 12.7736
H 7.73843 15.9071 13.6139
H 6.45713 15.666 12.8445
O 13.6403 19.2214 7.09309
H 13.0254 18.6666 7.57292
H 13.4395 19.0606 6.1711
O 15.2707 13.8673 13.168
H 14.8091 13.3699 12.4929
H 15.881 14.4221 12.6823
O 17.8883 13.3841 25.5895
H 17.8375 13.9235 24.8003
H 18.5243 12.7022 25.3735
O 30.7297 12.4782 12.6888
H 31.3471 13.169 12.9292
H 30.4394 12.114 13.525
O 15.0987 16.6342 25.9377
H 14.5975 17.4476 25.9973
H 15.3054 16.5474 25.0071
O 14.2446 21.7975 10.1453
H 14.7208 22.5579 10.479
H 13.9565 22.0595 9.27092
O 23.4161 31.708 22.456
H 24.2592 31.5283 22.0399
H 23.6416 32.1526 23.2731
O 15.4441 8.67909 13.075
H 16.1785 8.16792 12.7349
H 15.844 9.29301 13.691
O 30.8345 32.5885 13.9597
H 30.1399 32.2476 13.3962
H 31.6354 32.1865 13.6234
O 5.71111 7.50427 3.43293
H 5.16536 8.12302 2.94761
H 5.76261 7.87081 4.31567
O 28.3808 19.7049 12.2839
H 27.8218 19.0464 11.8715
H 29.0082 19.1983 12.7995
O 1.23227 14.6638 8.07809
H 1.47197 13.829 7.67579
H 32.5191 14.4439 8.68373
O 8.78296 7.93213 20.5651
H 9.69044 8.2365 20.5572
H 8.75583 7.241 19.9034
O 13.7507 11.704 11.5107
H 13.2609 10.9907 11.1014
H 13.6353 12.446 10.9171
O 32.4236 19.8648 22.9206
H 0.944021 19.4096 22.2545
H 32.5438 20.7938 22.7237
O 19.8497 15.6717 13.9123
H 19.5231 16.0026 13.0756
H 19.2571 16.044 14.5654
O 4.16389 18.4874 10.393
H 3.48454 17.8906 10.079
H 3.68256 19.1926 10.8257
O 11.7873 19.301 30.369
H 11.4822 18.4 30.4756
H 12.7306 19.2198 30.2277
O 11.0562 17.5972 13.8918
H 11.8551 17.2371 13.5066
H 11.333 18.422 14.291
O 29.1033 3.47393 11.2684
H 29.1714 4.42349 11.368
H 29.9787 3.14738 11.4764
O 2.05746 31.7277 17.1287
H 1.15309 32.0349 17.1917
H 2.20331 31.2427 17.9409
O 22.584 12.0675 5.06189
H 23.1484 11.2946 5.04509
H 23.1411 12.764 5.40924
O 6.68635 4.75185 1.596
H 6.69622 3.80223 1.47617
H 5.7632 4.96744 1.72851
O 22.0458 4.39037 2.68605
H 22.173 4.92503 3.46976
H 22.148 3.48893 2.99134
O 31.7133 14.9746 28.2204
H 30.891 14.5137 28.0544
H 32.0727 14.5511 28.9999
O 28.8953 11.0022 23.6128
H 27.9433 10.9044 23.5924
H 29.0387 11.8824 23.9605
O 19.2225 25.6482 8.37195
H 18.2857 25.4787 8.27229
H 19.6404 24.8098 8.1748
O 23.3079 18.3945 19.222
H 23.7172 18.1238 20.0438
H 23.4336 19.343 19.1923
O 7.39117 31.9142 12.7854
H 8.30368 32.0828 12.5506
H 7.32257 30.9598 12.812
O 22.1042 22.1981 3.92227
H 22.744 22.1611 4.6332
H 21.3733 21.6615 4.22907
O 8.71204 20.1583 1.25091
H 8.01181 20.3126 32.6115
H 8.35387 19.5025 1.84916
O 1.16561 31.2106 12.5214
H 1.56421 32.0768 12.6049
H 1.54711 30.7009 13.2362
O 15.5658 22.4422 18.7514
H 14.6462 22.1923 18.8413
H 16.0534 21.6584 19.0047
O 5.58672 9.59098 29.5569
H 6.21068 9.38773 30.2537
H 6.10268 10.0622 28.9026
O 5.08568 22.025 13.983
H 4.19561 21.6741 13.9529
H 5.26296 22.1501 14.9153
O 9.50472 32.4353 21.7266
H 10.0404 32.5717 22.5081
H 9.53643 31.4906 21.5758
O 13.0572 10.1851 2.42167
H 13.2123 9.29271 2.1121
H 12.3655 10.5202 1.85118
O 13.2905 30.3325 26.0139
H 13.7978 29.6561 26.4627
H 13.5455 31.1487 26.444
O 14.6979 26.7532 11.632
H 15.2985 27.1443 12.2664
H 15.0218 25.8602 11.5138
O 29.5475 32.5643 29.6231
H 29.0347 1.17396 29.0864
H 28.9572 31.8288 29.7869
O 9.18564 10.5948 22.6528
H 9.20559 10.9064 21.7479
H 9.81569 11.1502 23.1118
O 12.0427 28.416 8.76239
H 12.3247 27.5234 8.56241
H 11.4408 28.3179 9.50023
O 5.91616 17.0338 4.53424
H 5.08344 17.0807 4.06454
H 6.36442 17.8493 4.31006
O 2.28854 12.2595 7.37328
H 2.20204 11.4757 7.91581
H 3.09114 12.6788 7.68358
O 11.5077 25.9493 17.0571
H 12.119 25.7035 16.3628
H 10.9853 25.1614 17.207
O 7.34868 18.1024 31.2457
H 7.89235 17.3636 31.5194
H 6.45362 17.7641 31.2712
O 16.4404 27.5939 20.8117
H 15.9834 26.7532 20.7842
H 16.6417 27.7876 19.8962
O 1.15714 23.0047 11.6283
H 32.4442 22.5361 12.071
H 1.38961 23.7121 12.2298
O 23.3904 28.6247 23.898
H 23.2345 29.3718 23.3203
H 24.286 28.3509 23.7
O 10.5055 27.9816 10.9464
H 10.9595 27.4898 11.6307
H 10.7159 28.8973 11.1292
O 27.1654 4.99474 5.27572
H 26.2211 5.14257 5.32729
H 27.4751 5.64087 4.64105
O 25.5837 23.728 29.483
H 26.2769 23.8244 30.136
H 25.8448 24.3089 28.7684
O 23.9553 8.31382 2.76062
H 24.1847 8.86824 3.50643
H 24.5552 7.57035 2.82078
O 3.80208 8.75489 2.10699
H 3.43528 9.61767 2.30013
H 3.73614 8.67359 1.15553
O 21.1566 20.712 9.02157
H 20.9699 20.2991 8.17843
H 21.7747 21.4127 8.81396
O 2.0266 27.0949 1.54162
H 2.31411 26.2665 1.15767
H 2.82544 27.6177 1.61001
O 20.4687 1.1609 18.5975
H 20.8854 0.981044 19.4402
H 20.5733 2.10439 18.4745
O 14.1339 9.27481 26.7999
H 14.502 9.5988 27.622
H 13.364 8.77089 27.0639
O 16.6202 7.95394 17.7502
H 15.748 7.82198 17.3787
H 16.5081 8.66762 18.3782
O 30.5815 14.4185 17.1069
H 31.1295 13.9715 17.752
H 30.9493 14.1626 16.261
O 10.5847 19.3089 27.5799
H 10.3229 18.8822 26.7641
H 11.5376 19.2206 27.6019
O 9.40542 0.902085 3.5133
H 9.28003 1.45288 4.28604
H 8.87499 32.1186 3.6846
O 30.5797 24.3227 16.2398
H 30.0076 24.3337 17.0072
H 30.0276 23.9866 15.5337
O 19.0855 2.55113 21.2033
H 18.4383 2.67434 21.8977
H 19.2846 1.61511 21.2241
O 23.3702 7.95113 9.2579
H 22.8491 7.17353 9.45798
H 22.8384 8.44163 8.63113
O 22.6213 22.9505 8.47186
H 23.5271 23.1271 8.21774
H 22.4856 23.4783 9.25879
O 4.42244 5.74148 8.07004
H 5.16382 6.12833 8.5358
H 3.6747 6.28705 8.31393
O 5.68159 20.4765 24.9605
H 5.05696 21.1901 25.0904
H 6.14889 20.7096 24.1583
O 25.7173 6.36109 26.4693
H 25.9511 5.94978 27.3014
H 26.2717 7.13996 26.4224
O 1.44018 6.61647 2.97542
H 2.17636 7.16962 3.23675
H 0.738744 6.84691 3.58461
O 22.5238 24.1525 29.7517
H 22.261 23.3366 30.1776
H 23.3545 23.9435 29.3244
O 27.4561 2.28182 9.29196
H 27.0229 1.6029 9.80929
H 27.8403 2.87025 9.94187
O 11.1137 26.6478 4.33177
H 11.3338 27.4214 4.85072
H 11.9592 26.2517 4.1209
O 22.0787 3.60179 16.949
H 21.7127 3.60619 16.0646
H 21.7712 4.41961 17.3401
O 4.78139 27.5138 23.7746
H 5.65559 27.6161 24.1508
H 4.21324 28.034 24.3428
O 2.60637 22.745 5.32872
H 2.71073 23.163 4.47399
H 1.66471 22.5926 5.40798
O 13.5196 28.0183 0.760175
H 13.8923 28.775 1.21283
H 12.8657 27.6732 1.36797
O 17.9517 8.16263 11.8829
H 18.3341 7.41176 11.4289
H 18.6041 8.40314 12.5407
O 21.3658 9.57047 8.08244
H 21.5982 10.437 7.74864
H 21.0309 9.73475 8.96397
O 20.8566 15.2456 5.76957
H 20.7249 15.0634 6.69998
H 21.8039 15.1866 5.64522
O 11.6142 8.99286 31.1286
H 11.2761 9.37219 31.9397
H 11.3677 9.6204 30.4491
O 14.867 11.9544 1.07966
H 14.1555 11.3456 1.27763
H 15.6628 11.4294 1.16488
O 18.625 20.5766 30.2958
H 18.1267 20.4792 31.1072
H 19.4659 20.9406 30.5729
O 14.5628 3.91149 29.6745
H 13.967 3.25157 29.3198
H 15.4207 3.67432 29.3224
O 32.2406 14.7186 14.6583
H 0.734164 15.1944 15.3301
H 0.784255 13.95 14.4695
O 5.2711 24.8553 26.8827
H 6.1095 25.3171 26.8927
H 4.65086 25.4757 27.2657
O 31.5825 32.0353 21.0229
H 32.0738 31.4005 21.5443
H 32.1882 32.296 20.3291
O 4.69666 1.57957 7.15848
H 4.8243 2.24235 6.47976
H 5.4887 1.04329 7.1222
O 0.785892 16.5483 12.431
H 0.737527 15.7859 13.0076
H 1.53004 16.368 11.8566
O 6.08605 1.23119 26.3794
H 5.65556 32.3963 26.1727
H 6.61421 1.0409 27.1547
O 16.87 32.5248 20.232
H 16.172 1.1549 20.4287
H 16.6012 31.7183 20.6718
O 21.3612 16.2423 20.4828
H 21.9142 16.0826 21.2476
H 20.5044 16.463 20.848
O 2.01372 1.69862 13.0177
H 2.82408 2.10316 12.7081
H 2.03453 1.81607 13.9675
O 14.0726 4.715 16.9598
H 13.3629 4.55431 16.338
H 14.3585 5.60901 16.772
O 17.7967 31.2668 12.3292
H 18.6957 31.5032 12.5578
H 17.8214 30.3176 12.2089
O 30.8255 18.4938 13.6472
H 31.1494 17.6646 13.2953
H 30.2294 18.2391 14.3514
O 7.71508 11.6062 9.42312
H 7.84319 12.2807 10.0901
H 8.1123 10.8199 9.79753
O 20.2512 23.7881 16.5638
H 19.8051 24.4976 17.0263
H 20.6013 24.1996 15.7737
O 21.8493 12.0112 18.8694
H 21.5501 12.0804 19.776
H 21.6 11.1268 18.6012
O 18.3234 1.14536 28.5871
H 18.3203 2.10066 28.6472
H 19.248 0.9043 28.6448
O 15.7249 24.3553 10.7751
H 16.5537 24.0254 11.1223
H 15.9586 24.7589 9.93924
O 32.5673 11.9449 20.9339
H 31.6161 12.0501 20.9512
H 0.89516 12.57 21.5831
O 26.4136 12.9006 26.3559
H 26.5009 12.8193 27.3057
H 26.8766 13.7103 26.1408
O 6.76679 32.0118 8.19906
H 6.18697 31.6544 8.87158
H 7.26926 0.695058 8.65098
O 16.2514 29.5481 15.2638
H 15.8697 30.2987 15.719
H 16.4507 28.9216 15.9595
O 2.61852 25.6396 25.1134
H 2.6618 26.3703 25.7301
H 3.5007 25.2682 25.1191
O 28.5718 8.73126 12.1801
H 28.2921 9.55662 12.576
H 28.8623 8.97323 11.3007
O 14.1239 14.1902 2.86598
H 14.1151 13.3298 2.44655
H 14.8492 14.1461 3.489
O 9.49726 5.3944 22.1623
H 9.53481 6.34515 22.0579
H 8.78144 5.1182 21.59
O 24.0136 18.6697 10.0751
H 24.2804 17.9142 9.55143
H 24.6527 18.7061 10.7868
O 13.5208 1.49386 19.2183
H 14.2856 1.75463 18.7051
H 13.445 32.5454 19.0736
O 15.0945 7.87446 8.7725
H 14.3825 7.99273 8.14369
H 15.7997 7.47411 8.26402
O 32.1807 11.0448 31.4299
H 32.3664 11.9823 31.3771
H 31.2472 10.9735 31.2306
O 13.5761 6.76829 21.4296
H 13.3558 7.43734 22.0778
H 13.1226 5.9818 21.733
O 26.0123 11.8901 29.3048
H 26.5966 11.1655 29.5281
H 25.2727 11.4743 28.8618
O 31.9249 20.1123 17.6904
H 31.6115 20.6902 18.3861
H 31.4437 19.2954 17.822
O 14.4621 15.7489 29.9878
H 14.3426 14.8079 30.1163
H 13.7394 16.0066 29.4155
O 13.9762 30.4308 13.8229
H 14.4292 29.8489 14.4331
H 14.595 31.1444 13.6675
O 13.8412 12.3877 18.5398
H 14.5055 13.0701 18.4435
H 13.1354 12.6551 17.951
O 25.3095 10.3182 11.6609
H 24.525 10.6635 11.2348
H 25.041 10.1599 12.5659
O 7.65934 3.92719 12.1567
H 6.80462 4.20149 12.489
H 8.12062 4.74618 11.9758
O 23.3794 20.0002 5.53778
H 23.5695 19.3123 4.89992
H 23.9827 19.8301 6.26119
O 8.28259 26.6316 14.1825
H 8.84271 25.9289 14.5123
H 8.49438 27.3856 14.7328
O 30.553 31.711 4.21316
H 30.3006 32.2884 4.93362
H 30.0009 31.9854 3.48095
O 26.361 30.3567 24.8882
H 26.0058 30.5502 25.7558
H 27.3068 30.4663 24.9862
O 24.7767 29.9672 3.69374
H 23.8202 29.9937 3.71924
H 25.0342 29.7339 4.58567
O 14.6114 21.0124 27.4284
H 15.2839 20.3676 27.6477
H 15.0975 21.751 27.0617
O 28.8214 20.6531 29.8116
H 28.6188 20.8726 30.721
H 28.6378 19.7161 29.7443
O 27.0505 30.7602 17.2124
H 26.5878 30.4171 16.4479
H 26.4159 31.3363 17.6385
O 30.8542 17.6774 18.3477
H 30.6567 17.9659 19.2388
H 31.738 17.3141 18.4035
O 5.50457 11.8502 16.8882
H 6.45398 11.9247 16.9846
H 5.23591 11.2693 17.6
O 22.9805 2.04917 3.90812
H 23.9319 1.94378 3.90714
H 22.7401 2.0505 4.83465
O 27.8293 12.2114 7.9792
H 26.9173 12.2529 7.69176
H 27.7996 11.7239 8.80246
O 20.6897 5.00522 28.4547
H 20.6747 5.95966 28.5257
H 19.7798 4.74023 28.5891
O 10.6299 14.1374 5.61358
H 9.93513 14.7534 5.38094
H 10.1752 13.416 6.04845
O 17.03 23.322 16.5248
H 16.2627 23.2 17.0841
H 17.7599 23.4183 17.1365
O 28.8345 15.0276 7.47863
H 29.4334 14.9069 8.2155
H 28.5537 14.1416 7.24994
O 17.1652 14.2794 23.2054
H 17.0103 15.2096 23.0415
H 17.9547 14.0756 22.7041
O 17.5477 2.71091 13.4409
H 17.0992 3.53341 13.6374
H 17.8648 2.81878 12.5442
O 26.6863 12.01 4.45765
H 27.3618 11.4658 4.8623
H 26.8351 12.8844 4.81759
O 6.25894 10.9392 22.2277
H 6.40704 11.8746 22.367
H 6.12896 10.8549 21.2831
O 23.3994 10.4192 23.7598
H 22.9026 10.9689 23.1539
H 22.8441 9.65191 23.8981
O 17.9751 21.4108 27.6027
H 18.8543 21.3727 27.2259
H 18.098 21.1771 28.5228
O 22.5299 12.1919 8.11244
H 22.5642 12.0806 9.06253
H 21.9402 12.9339 7.97884
O 26.6397 15.2841 28.6071
H 27.0972 14.8556 29.3305
H 26.8515 16.2124 28.7055
O 2.61737 17.4662 14.1145
H 1.87677 17.387 13.5133
H 3.31496 16.9547 13.7046
O 0.941881 9.2935 21.2397
H 0.778883 10.2355 21.2875
H 0.681834 8.96107 22.0989
O 18.9844 17.0626 11.4951
H 18.5209 17.7592 11.9601
H 18.4137 16.2985 11.5769
O 32.4641 11.7378 16.7174
H 0.92029 11.785 15.8744
H 31.54 11.6349 16.49
O 9.85738 24.2809 30.1837
H 9.36014 24.0165 29.4097
H 10.6515 23.7473 30.1526
O 31.5684 3.61346 0.94603
H 30.7539 3.8897 32.5206
H 31.8938 2.90229 32.3889
O 17.2936 20.9921 20.255
H 16.7109 21.3634 20.9175
H 17.0001 20.0863 20.1578
O 8.90551 10.185 3.3947
H 9.14355 9.99686 4.30254
H 9.14266 11.1039 3.26993
O 1.3574 1.86901 19.217
H 1.47549 2.27522 20.0757
H 0.839758 2.50303 18.7207
O 31.233 11.6196 27.0261
H 30.8898 11.003 26.3794
H 31.4871 11.0718 27.7688
O 12.3779 4.22203 7.35737
H 13.0317 4.17123 8.05464
H 12.4929 3.41165 6.86108
O 7.95564 13.6935 29.5256
H 8.16789 14.3009 30.2343
H 8.41753 12.887 29.7543
O 3.29185 8.51737 31.4515
H 3.81556 9.06365 30.8654
H 3.02084 7.7759 30.9103
O 4.5119 26.1534 12.3075
H 4.07575 25.7296 11.5684
H 4.75112 27.0204 11.9801
O 9.14919 20.2973 4.95284
H 8.74907 20.3874 5.81773
H 10.0524 20.5899 5.07461
O 30.7023 14.8091 9.79267
H 29.9249 14.4538 10.2235
H 30.7879 15.6951 10.1446
O 17.7998 1.12549 4.93456
H 17.9956 1.98027 4.55083
H 17.6584 32.5459 4.18191
O 21.8043 2.19665 6.39964
H 21.1369 1.51363 6.33454
H 22.4527 1.84147 7.0077
O 15.304 19.6685 23.9542
H 15.6361 18.8719 23.5402
H 14.3699 19.5017 24.0805
O 6.14094 22.6442 11.4799
H 7.05598 22.7344 11.746
H 5.67218 22.4551 12.2928
O 3.12529 12.318 29.63
H 2.99128 11.5275 29.1071
H 3.32017 11.9938 30.5093
O 14.0991 22.9956 3.03381
H 13.8672 23.8931 3.2724
H 14.1914 22.5409 3.87106
O 11.3042 2.3202 20.466
H 11.278 1.83795 21.2925
H 12.1113 2.0274 20.0429
O 5.00133 14.3826 2.18795
H 5.83148 14.7256 1.85709
H 4.48714 15.1617 2.39967
O 2.13926 11.6469 25.8295
H 1.25226 12.006 25.8521
H 2.62254 12.2373 25.2515
O 15.4621 26.9411 5.94152
H 16.1231 26.2869 6.16827
H 15.0394 26.593 5.15643
O 6.79974 13.6124 6.25235
H 7.44661 12.9486 6.49136
H 6.38282 13.2678 5.46262
O 19.664 13.9482 1.3623
H 19.3595 14.6322 0.765964
H 18.9998 13.9168 2.0508
O 25.7742 27.3308 17.2788
H 25.0584 27.9649 17.2356
H 26.5049 27.7632 16.8368
O 31.8771 3.35743 17.1755
H 32.0281 4.26366 17.4442
H 31.1846 3.41451 16.5172
O 14.5193 13.424 23.3747
H 15.4675 13.5365 23.3085
H 14.3615 12.5312 23.0678
O 6.30446 16.0695 18.0819
H 5.77706 15.9505 18.8718
H 5.72322 16.5229 17.4713
O 25.8046 4.01787 11.6504
H 25.6376 4.55085 12.4278
H 24.9703 3.58338 11.4736
O 9.58994 15.8772 24.84
H 10.2239 15.5368 24.2088
H 9.57599 15.2258 25.5412
O 3.16945 18.7652 4.21419
H 3.89104 19.393 4.25056
H 3.30192 18.2947 3.39115
O 13.7685 17.5577 12.8322
H 14.4291 17.3165 13.4816
H 14.0186 17.0745 12.0447
O 2.46295 8.72559 16.1098
H 3.07887 9.3449 15.7182
H 2.47317 7.97167 15.5201
O 5.70821 19.9173 4.47094
H 5.56538 20.5874 3.80255
H 5.41906 20.3264 5.28658
O 13.0144 8.10221 6.80265
H 12.5012 8.62449 7.41918
H 13.3667 8.74061 6.18252
O 17.0534 24.64 14.1808
H 17.2977 25.5289 14.4384
H 17.1774 24.1179 14.9735
O 8.44912 12.0616 14.5853
H 8.38694 11.1901 14.9763
H 9.20777 12.0102 14.0039
O 14.5091 1.95181 22.9777
H 14.6621 2.34403 23.8373
H 14.747 2.63855 22.3548
O 28.2802 27.7961 19.295
H 28.7002 26.9434 19.1823
H 27.5237 27.7703 18.7092
O 29.8614 8.63223 32.316
H 29.565 9.42239 31.8643
H 29.0828 8.07761 32.3653
O 26.2987 2.81766 16.0195
H 26.8587 2.12339 15.6722
H 25.4138 2.45514 15.9788
O 29.2816 22.2303 2.98621
H 29.1382 21.6541 2.23539
H 29.94 21.778 3.51356
O 11.4817 24.0746 32.5795
H 11.8211 23.2306 0.88275
H 12.1248 24.3794 31.9394
O 29.7862 14.2177 3.34132
H 29.9245 15.0376 2.86717
H 29.3411 13.6492 2.7129
O 28.3649 21.7751 26.3033
H 28.8688 21.0109 26.5834
H 27.8749 21.4724 25.5388
O 2.6252 7.27926 27.2959
H 2.85922 8.1934 27.4565
H 1.84236 7.32485 26.747
O 5.41181 9.94439 12.2148
H 4.54206 10.0598 11.8321
H 5.48485 9.00185 12.3649
O 6.02607 26.2791 18.7474
H 6.48343 26.9111 19.3021
H 6.70427 25.6581 18.4815
O 17.1587 31.042 6.96141
H 17.2427 31.8581 6.46825
H 16.4676 30.5583 6.50907
O 24.9934 16.1944 12.805
H 24.1737 15.8758 13.1831
H 25.5416 15.4135 12.728
O 18.6877 9.13213 16.137
H 18.1646 8.36603 16.3732
H 19.2023 8.84779 15.3816
O 29.0907 6.56642 29.5409
H 30.0188 6.70614 29.3528
H 28.7359 7.44669 29.665
O 31.8272 26.4604 14.5798
H 31.4417 25.9657 15.303
H 32.2651 25.7995 14.0434
O 8.50221 32.5279 16.1941
H 8.58703 31.6529 16.5729
H 8.82623 1.12219 16.8755
O 29.6916 16.6174 1.87387
H 29.8734 17.2569 2.56253
H 28.7431 16.659 1.75216
O 1.86556 8.94828 4.77949
H 1.00518 9.35133 4.66314
H 1.68851 8.13871 5.25853
O 20.4658 4.55186 6.02096
H 21.1037 5.13563 5.61039
H 20.9634 3.76109 6.22915
O 13.4952 24.4604 27.0119
H 12.8346 24.4864 26.3197
H 14.3198 24.3062 26.5509
O 25.1429 14.4015 10.5949
H 25.6059 13.6141 10.309
H 25.1612 14.9807 9.83305
O 32.1065 9.97435 12.2171
H 31.9165 9.48054 13.0148
H 31.5886 10.7749 12.3013
O 11.9604 4.30802 25.0502
H 11.0098 4.35311 25.1528
H 12.1061 4.42277 24.1111
O 7.88566 20.4326 7.52142
H 8.40343 21.2376 7.51078
H 7.36727 20.4913 8.32396
O 13.1579 3.00923 1.84901
H 12.746 2.40231 1.23403
H 13.513 3.706 1.29705
O 27.1058 8.91893 26.762
H 27.661 8.46697 26.1266
H 26.5426 9.48199 26.231
O 11.6768 13.7019 28.023
H 11.6073 14.5117 28.5286
H 12.1075 13.9634 27.2092
O 10.671 15.7371 10.2064
H 11.2964 16.214 9.66084
H 11.2059 15.3405 10.894
O 7.98824 12.2681 17.643
H 8.43797 12.2517 18.4878
H 8.41346 12.9756 17.1585
O 18.4809 4.57328 7.99588
H 18.6648 5.23302 8.66457
H 19.1535 4.71314 7.32935
O 8.00798 7.33789 1.45326
H 7.40619 7.64666 2.13056
H 7.57537 6.57006 1.07974
O 22.5667 15.6517 17.7699
H 22.0348 15.8218 18.5473
H 22.0863 16.0684 17.0545
O 28.5088 2.03412 31.7162
H 28.6216 1.5164 32.5133
H 28.9943 1.55249 31.0465
O 12.0705 28.5687 16.965
H 11.5266 27.784 17.0339
H 11.9265 28.8828 16.0723
O 25.3195 11.0973 7.49813
H 25.2407 10.4956 6.75792
H 24.4649 11.5253 7.55157
O 26.7364 5.73876 9.12706
H 26.8301 6.16841 9.97727
H 26.3161 4.9021 9.326
O 13.4494 25.7289 8.23598
H 13.0185 25.011 8.69983
H 13.9815 25.2975 7.5674
O 1.5734 27.3877 5.71172
H 0.943638 27.0754 5.06203
H 2.0135 28.123 5.28525
O 11.6558 12.2032 16.9222
H 12.1179 12.0019 16.1085
H 11.0691 12.9239 16.6932
O 7.25039 3.9065 15.495
H 6.89403 3.05796 15.2319
H 6.54445 4.5284 15.3186
O 6.38257 23.7975 5.82562
H 6.99792 23.7502 6.55729
H 5.76574 24.4857 6.07484
O 3.02112 10.1598 27.8112
H 3.92059 9.83386 27.8425
H 2.94999 10.5864 26.9574
O 13.162 16.17 32.4134
H 12.6745 15.4206 32.0714
H 13.9114 16.2579 31.8244
O 30.3361 30.1446 32.5848
H 30.3725 29.4331 1.22945
H 31.2362 30.2318 32.2712
O 11.2812 26.9362 24.0874
H 12.1927 27.1887 23.9402
H 10.9182 27.6457 24.6175
O 14.4639 28.1985 27.2543
H 14.841 27.885 26.4323
H 13.9934 27.4427 27.6061
O 20.8884 6.51142 32.5773
H 21.1801 5.83798 1.19715
H 19.9995 6.24926 32.3381
O 25.1418 17.2052 17.1504
H 24.3904 17.245 17.7421
H 24.8147 17.5579 16.3229
O 29.5389 7.6372 21.8458
H 28.8055 7.42754 22.4241
H 29.5054 6.9671 21.1631
O 1.50323 2.72447 28.6377
H 1.09169 2.14113 28.0001
H 2.41476 2.78711 28.3524
O 26.4064 17.9452 4.53887
H 26.856 17.1705 4.87651
H 25.5452 17.6249 4.27054
O 12.3177 16.4911 20.5867
H 13.1575 16.4475 20.1294
H 11.7409 15.9153 20.0848
O 10.8789 3.67831 31.3245
H 11.0965 4.51537 30.9143
H 10.7151 3.0866 30.5901
O 5.42823 22.803 20.9981
H 6.20122 23.3658 20.9543
H 5.70399 22.0577 21.5316
O 13.4196 22.0571 7.4146
H 12.6745 22.4758 6.98358
H 13.2673 21.1191 7.29948
O 28.7367 5.78233 3.09249
H 28.1624 6.10842 2.39964
H 29.053 4.94013 2.76552
O 2.62946 3.11316 25.8333
H 1.78364 2.89913 26.227
H 2.62193 2.66266 24.9888
O 9.85628 3.76454 8.12374
H 9.52887 4.56337 8.53716
H 10.7495 3.98131 7.85665
O 17.6813 19.1072 12.7998
H 17.2509 19.4098 13.5994
H 17.0266 19.2324 12.1128
O 1.33758 23.3226 16.0784
H 0.625986 23.4864 16.6973
H 2.13571 23.4675 16.5866
O 15 16.6028 20.0624
H 15.3885 16.768 20.9215
H 15.458 15.8278 19.737
O 18.7405 3.17703 10.8612
H 18.5034 4.07357 10.6241
H 18.3292 2.63414 10.1887
O 20.2774 26.5399 22.2663
H 21.1954 26.3267 22.4341
H 19.8373 26.379 23.1009
O 31.7875 2.95869 11.9071
H 32.2026 3.04097 11.0485
H 32.387 2.40892 12.4117
O 8.89047 20.5424 21.6305
H 9.40283 21.3137 21.3879
H 9.41723 19.8009 21.3325
O 16.1547 23.5665 27.3066
H 16.8803 22.9713 27.4952
H 15.6392 23.5794 28.113
O 10.173 19.6548 9.25179
H 9.8321 18.9806 9.83956
H 9.45574 19.8263 8.64159
O 24.094 0.975167 15.3988
H 24.4825 32.2565 15.9052
H 24.0043 0.620425 14.5143
O 18.0785 3.20307 18.5519
H 18.1797 3.00468 19.4828
H 18.3195 4.12628 18.4756
O 28.6159 7.11921 25.3265
H 28.9688 6.27577 25.6098
H 28.1742 6.92877 24.4989
O 11.3311 8.72597 20.2289
H 12.2175 8.44344 20.4539
H 11.3938 9.67837 20.1565
O 12.7669 28.781 20.1242
H 13.2609 29.5975 20.0493
H 12.6706 28.4751 19.2224
O 20.5211 3.03312 26.4277
H 20.7023 3.3534 25.544
H 20.6697 3.79119 26.9929
O 18.9836 14.1123 16.8144
H 18.4599 13.3721 16.5079
H 19.8905 13.8251 16.7082
O 5.40149 19.2319 1.56007
H 6.14364 18.73 1.89692
H 4.68887 18.5957 1.50004
O 17.2476 23.8063 1.31012
H 17.1684 22.8576 1.21089
H 16.9314 24.1617 32.4741
O 7.96323 25.9182 26.5655
H 8.17987 26.1951 27.4558
H 7.87274 26.7354 26.0753
O 4.23662 5.74421 2.24118
H 3.57675 5.66506 2.93004
H 4.77813 6.48574 2.51162
O 24.5971 10.0647 4.85792
H 25.3877 10.5203 4.56879
H 24.9121 9.40775 5.47872
O 15.5968 5.60881 11.046
H 15.0694 6.34635 10.7393
H 16.4519 5.73822 10.6356
O 19.0037 25.8662 18.0715
H 19.8808 26.2222 18.2135
H 18.4387 26.6365 18.0115
O 7.77509 5.02757 4.37035
H 7.31382 5.83908 4.58224
H 7.73995 4.9739 3.4153
O 12.5749 21.7422 1.17781
H 13.2308 21.543 32.5043
H 13.0109 22.359 1.76579
O 13.7686 20.9677 13.7507
H 12.9102 20.7316 14.1025
H 13.7822 21.9245 13.7732
O 22.6683 21.0126 28.6801
H 21.9728 21.0839 28.0264
H 22.3204 21.4615 29.4506
O 22.785 15.7597 22.7646
H 21.9437 15.6966 23.2168
H 23.434 15.5417 23.4336
O 19.8806 29.114 10.9643
H 19.5639 28.4119 11.5326
H 19.1089 29.3878 10.4684
O 24.2612 3.24026 18.5854
H 23.5482 3.39666 17.9662
H 23.851 3.31315 19.4471
O 16.7071 21.8574 22.874
H 16.3654 22.6637 23.2605
H 16.1963 21.1595 23.2842
O 11.1131 30.0822 14.9017
H 11.1108 29.9418 13.9549
H 11.3168 31.0117 15.0059
O 6.60878 11.2619 1.77658
H 7.21741 10.8722 2.4042
H 7.16453 11.776 1.19086
O 8.30161 15.6222 5.40167
H 7.71798 16.1617 4.86822
H 7.77914 14.8518 5.62483
O 3.43581 8.65247 22.0402
H 4.01803 8.92457 21.3308
H 2.57436 8.9811 21.783
O 22.2016 30.965 26.3574
H 21.4152 30.4197 26.3331
H 22.9266 30.3402 26.3683
O 18.9031 30.0939 23.9665
H 18.2662 30.0489 23.2533
H 19.1812 31.0096 23.9824
O 27.7329 11.344 10.606
H 28.0686 12.1588 10.9797
H 27.1254 11.0097 11.2658
O 6.62642 28.8088 27.5568
H 6.93535 28.7188 26.6553
H 7.42381 28.7957 28.0862
O 8.56975 29.1432 15.597
H 8.80609 29.0316 16.5178
H 9.38808 29.3928 15.1677
O 11.3643 29.2957 31.0745
H 11.6389 30.2069 30.9721
H 12.1535 28.8383 31.3646
O 21.6167 24.5745 6.41676
H 20.8058 24.1434 6.14695
H 22.1328 23.8802 6.82634
O 6.7126 23.1024 28.5813
H 5.95795 23.5972 28.2622
H 6.43239 22.7577 29.4292
O 26.9594 23.7681 31.8643
H 26.7454 22.9808 32.3648
H 27.8805 23.6592 31.6278
O 7.23226 31.8776 23.1561
H 7.11393 0.684129 23.6663
H 7.87873 32.1106 22.4898
O 1.4576 23.1918 8.89997
H 1.41795 22.3303 8.48469
H 1.39111 23.0097 9.83733
O 2.20391 11.0225 2.12833
H 2.33764 11.6538 2.83522
H 2.68704 11.3867 1.38662
O 4.82642 13.2891 8.07083
H 5.57167 13.6402 7.58345
H 5.0036 13.5233 8.98185
O 3.61519 5.16066 5.36725
H 4.42074 4.71179 5.11064
H 3.82913 5.57985 6.20077
O 31.2564 20.5471 3.57304
H 31.7434 20.9138 4.31106
H 31.783 19.8016 3.2847
O 30.5253 6.41358 15.1592
H 31.0834 5.99225 15.8128
H 30.8333 7.31934 15.1286
O 29.1267 20.6901 0.724414
H 29.9513 20.2389 32.5381
H 28.567 20.0194 1.11566
O 15.5829 24.8174 20.9525
H 15.1588 24.4329 20.1853
H 14.9663 24.666 21.6688
O 25.2017 5.0579 14.2841
H 25.4786 5.96044 14.1261
H 25.124 4.99383 15.236
O 27.7391 6.95131 32.4568
H 28.1464 6.16342 32.0968
H 26.9054 7.02422 31.992
O 16.9842 31.4627 26.8056
H 16.9792 31.8757 25.9421
H 17.3539 32.127 27.3872
O 8.60414 13.9511 11.0567
H 9.04022 14.5597 10.4603
H 8.32095 14.496 11.7909
O 1.68278 2.68665 9.77779
H 2.44195 3.22578 9.55588
H 2.03839 1.80466 9.88674
O 28.7885 19.8994 9.01431
H 29.056 19.106 9.4782
H 27.9746 20.1648 9.44249
O 18.7438 14.2069 19.5401
H 18.5506 15.1066 19.8037
H 18.8939 14.2603 18.5963
O 21.1078 30.6301 1.15483
H 21.2761 31.5417 1.39347
H 21.4715 30.5416 32.2685
O 0.66128 19.5521 11.106
H 1.38088 20.1816 11.1526
H 32.1612 19.6931 11.9132
O 0.710651 13.5583 18.7421
H 0.65287 12.9283 18.0238
H 0.690274 13.0215 19.5343
O 12.189 1.71423 26.16
H 11.3325 1.32257 26.3311
H 11.994 2.61613 25.9055
O 10.1569 6.00023 11.5604
H 9.7682 6.00889 10.6858
H 10.5797 5.14404 11.6267
O 6.97952 8.36772 22.6432
H 6.69813 9.25895 22.4364
H 7.62407 8.15673 21.9678
O 23.6517 24.9438 32.226
H 23.3398 24.6482 31.3707
H 24.513 24.5372 32.321
O 22.0559 8.11959 24.122
H 21.207 7.74278 23.8905
H 22.4055 7.53071 24.7907
O 19.0784 18.0336 29.6199
H 19.0864 18.8943 30.0387
H 18.2726 18.0257 29.1032
O 30.1535 2.22061 5.74887
H 30.4465 2.74907 5.00648
H 29.2253 2.43393 5.84382
O 28.7163 13.7556 11.3222
H 28.0226 13.8925 11.9674
H 29.4432 13.3888 11.8256
O 23.9571 4.10738 8.63277
H 23.3146 4.72096 8.989
H 24.1791 3.53779 9.36934
O 30.0891 22.0362 18.9927
H 29.7764 21.8062 19.8677
H 29.92 22.9753 18.9166
O 20.4806 9.97416 10.958
H 20.3321 9.11199 11.3464
H 19.7457 10.5053 11.2648
O 23.1924 3.74869 28.2821
H 23.2316 2.87327 28.6672
H 22.3177 4.06894 28.5026
O 16.0377 19.6869 14.8496
H 15.3302 20.2051 14.466
H 15.6626 18.8132 14.9599
O 28.9345 32.161 1.9503
H 29.2574 31.3844 1.49331
H 27.9968 32.0026 2.05949
O 31.5308 20.8506 8.99713
H 31.9411 20.4421 9.75938
H 30.6329 20.5188 9.00129
O 23.2142 17.8595 27.0391
H 23.1747 17.7931 27.9932
H 22.4157 17.4279 26.7353
O 11.2329 28.4388 26.668
H 10.6274 28.6595 27.3758
H 11.7851 29.215 26.5739
O 10.2864 32.1654 12.1913
H 10.2849 0.649281 11.3623
H 10.1859 0.84843 12.8598
O 22.8219 7.44561 31.0453
H 22.0259 7.22937 31.531
H 22.5088 7.73557 30.1884
O 2.09412 28.163 30.9719
H 2.19202 27.5753 31.7211
H 2.98336 28.2726 30.6351
O 4.245 3.73908 20.7099
H 3.76028 4.56333 20.7532
H 4.07682 3.40784 19.8277
O 4.91279 2.27291 22.9014
H 4.91089 3.13134 22.478
H 5.53779 2.36166 23.621
O 28.3546 30.2549 30.7429
H 28.2114 29.5132 30.155
H 29.1791 30.0543 31.1859
O 1.1215 6.3621 5.98614
H 32.2646 5.96813 6.17534
H 1.62805 5.65681 5.58338
O 15.996 24.2242 24.259
H 16.6235 24.9413 24.1682
H 15.9934 24.0247 25.1952
O 18.0445 11.6155 30.8017
H 18.1196 11.2744 29.9105
H 17.9283 12.5589 30.6886
O 17.8787 16.7567 27.1208
H 17.0567 16.3207 26.8959