created by fftool

3144 atoms
2000 bonds
1000 angles
4 atom types
1 bond types
1 angle types
0.000000 32.566733 xlo xhi
0.000000 32.566733 ylo yhi
0.000000 32.566733 zlo zhi
Atoms

      1       1    1  -1.112800  3.090629e+01  1.113057e+01  1.591019e+01  # Ow water
      2       1    2   0.556400  3.106211e+01  1.167922e+01  1.667891e+01  # Hw water
      3       1    2   0.556400  3.001228e+01  1.134221e+01  1.564152e+01  # Hw water
      4       2    1  -1.112800  7.509402e+00  1.510108e+00  2.834453e+00  # Ow water
      5       2    2   0.556400  8.099893e+00  1.500001e+00  3.587743e+00  # Hw water
      6       2    2   0.556400  6.632068e+00  1.500034e+00  3.217093e+00  # Hw water
      7       3    1  -1.112800  1.695189e+01  2.731886e+01  2.896512e+01  # Ow water
      8       3    2   0.556400  1.711032e+01  2.818810e+01  2.933329e+01  # Hw water
      9       3    2   0.556400  1.699206e+01  2.672856e+01  2.971756e+01  # Hw water
     10       4    1  -1.112800  2.774330e+01  1.269484e+01  1.556754e+00  # Ow water
     11       4    2   0.556400  2.829440e+01  1.347570e+01  1.503902e+00  # Hw water
     12       4    2   0.556400  2.686643e+01  1.303194e+01  1.740298e+00  # Hw water
     13       5    1  -1.112800  1.353815e+01  2.439734e+01  1.909581e+00  # Ow water
     14       5    2   0.556400  1.427960e+01  2.395147e+01  1.500081e+00  # Hw water
     15       5    2   0.556400  1.292566e+01  2.369456e+01  2.126777e+00  # Hw water
     16       6    1  -1.112800  4.858589e+00  1.325078e+01  7.671511e+00  # Ow water
     17       6    2   0.556400  5.692149e+00  1.302645e+01  8.085132e+00  # Hw water
     18       6    2   0.556400  4.266700e+00  1.342484e+01  8.403355e+00  # Hw water
     19       7    1  -1.112800  1.635310e+00  1.516777e+00  2.209658e+01  # Ow water
     20       7    2   0.556400  1.502478e+00  2.434277e+00  2.233486e+01  # Hw water
     21       7    2   0.556400  1.566854e+00  1.504426e+00  2.114191e+01  # Hw water
     22       8    1  -1.112800  1.435028e+01  1.407893e+01  6.301525e+00  # Ow water
     23       8    2   0.556400  1.373335e+01  1.397837e+01  7.026448e+00  # Hw water
     24       8    2   0.556400  1.517329e+01  1.433134e+01  6.720058e+00  # Hw water
     25       9    1  -1.112800  1.992989e+01  2.778491e+01  6.649325e+00  # Ow water
     26       9    2   0.556400  2.051980e+01  2.747777e+01  5.960921e+00  # Hw water
     27       9    2   0.556400  1.953347e+01  2.857831e+01  6.289329e+00  # Hw water
     28      10    1  -1.112800  1.723410e+01  1.639600e+01  3.105828e+01  # Ow water
     29      10    2   0.556400  1.790404e+01  1.571238e+01  3.106657e+01  # Hw water
     30      10    2   0.556400  1.663005e+01  1.613164e+01  3.036440e+01  # Hw water
     31      11    1  -1.112800  1.603348e+00  5.132211e+00  2.220269e+01  # Ow water
     32      11    2   0.556400  1.502207e+00  4.728173e+00  2.134086e+01  # Hw water
     33      11    2   0.556400  1.513843e+00  6.071149e+00  2.203956e+01  # Hw water
     34      12    1  -1.112800  1.172692e+01  3.106670e+01  2.629592e+01  # Ow water
     35      12    2   0.556400  1.233328e+01  3.089957e+01  2.701746e+01  # Hw water
     36      12    2   0.556400  1.154691e+01  3.020140e+01  2.592839e+01  # Hw water
     37      13    1  -1.112800  1.316846e+01  3.105576e+01  8.312227e+00  # Ow water
     38      13    2   0.556400  1.274561e+01  3.103270e+01  7.453800e+00  # Hw water
     39      13    2   0.556400  1.244322e+01  3.106260e+01  8.936890e+00  # Hw water
     40      14    1  -1.112800  1.768257e+01  1.136320e+01  8.779449e+00  # Ow water
     41      14    2   0.556400  1.699555e+01  1.069749e+01  8.746819e+00  # Hw water
     42      14    2   0.556400  1.725842e+01  1.212680e+01  9.170918e+00  # Hw water
     43      15    1  -1.112800  6.792182e+00  8.567566e+00  2.627740e+01  # Ow water
     44      15    2   0.556400  6.629755e+00  9.399149e+00  2.583207e+01  # Hw water
     45      15    2   0.556400  7.341806e+00  8.073095e+00  2.566942e+01  # Hw water
     46      16    1  -1.112800  1.227402e+01  3.886432e+00  1.854294e+01  # Ow water
     47      16    2   0.556400  1.242741e+01  4.735726e+00  1.812893e+01  # Hw water
     48      16    2   0.556400  1.143712e+01  3.988080e+00  1.899625e+01  # Hw water
     49      17    1  -1.112800  4.032455e+00  6.600418e+00  6.737381e+00  # Ow water
     50      17    2   0.556400  4.014937e+00  5.933184e+00  7.423471e+00  # Hw water
     51      17    2   0.556400  3.440284e+00  7.283568e+00  7.051814e+00  # Hw water
     52      18    1  -1.112800  1.869259e+01  1.618472e+00  4.191601e+00  # Ow water
     53      18    2   0.556400  1.919283e+01  1.500001e+00  3.384161e+00  # Hw water
     54      18    2   0.556400  1.843004e+01  2.538862e+00  4.178398e+00  # Hw water
     55      19    1  -1.112800  2.814515e+01  2.679745e+01  1.783653e+01  # Ow water
     56      19    2   0.556400  2.853394e+01  2.643622e+01  1.703992e+01  # Hw water
     57      19    2   0.556400  2.875794e+01  2.655898e+01  1.853212e+01  # Hw water
     58      20    1  -1.112800  9.030331e+00  1.411295e+01  1.617143e+01  # Ow water
     59      20    2   0.556400  9.854941e+00  1.366959e+01  1.637064e+01  # Hw water
     60      20    2   0.556400  8.941493e+00  1.403892e+01  1.522125e+01  # Hw water
     61      21    1  -1.112800  1.659065e+01  7.679440e+00  2.570236e+01  # Ow water
     62      21    2   0.556400  1.731362e+01  7.065792e+00  2.583262e+01  # Hw water
     63      21    2   0.556400  1.580653e+01  7.130458e+00  2.570468e+01  # Hw water
     64      22    1  -1.112800  2.508854e+01  9.757053e+00  8.832661e+00  # Ow water
     65      22    2   0.556400  2.568662e+01  1.032293e+01  9.320837e+00  # Hw water
     66      22    2   0.556400  2.421578e+01  1.002715e+01  9.118251e+00  # Hw water
     67      23    1  -1.112800  1.914075e+01  1.510479e+00  7.321672e+00  # Ow water
     68      23    2   0.556400  1.994242e+01  1.500010e+00  6.798753e+00  # Hw water
     69      23    2   0.556400  1.843362e+01  1.522574e+00  6.676652e+00  # Hw water
     70      24    1  -1.112800  3.062048e+01  3.008356e+01  1.932437e+00  # Ow water
     71      24    2   0.556400  3.049811e+01  2.964633e+01  2.775100e+00  # Hw water
     72      24    2   0.556400  3.106671e+01  3.090213e+01  2.149359e+00  # Hw water
     73      25    1  -1.112800  1.659955e+01  3.081996e+01  1.516671e+01  # Ow water
     74      25    2   0.556400  1.567602e+01  3.106675e+01  1.521581e+01  # Hw water
     75      25    2   0.556400  1.675997e+01  3.067500e+01  1.423424e+01  # Hw water
     76      26    1  -1.112800  3.064281e+01  2.616316e+01  1.280064e+01  # Ow water
     77      26    2   0.556400  3.047719e+01  2.529647e+01  1.317165e+01  # Hw water
     78      26    2   0.556400  3.106579e+01  2.665013e+01  1.350787e+01  # Hw water
     79      27    1  -1.112800  2.859706e+01  4.323258e+00  1.043339e+01  # Ow water
     80      27    2   0.556400  2.943090e+01  4.733054e+00  1.020316e+01  # Hw water
     81      27    2   0.556400  2.877652e+01  3.855876e+00  1.124922e+01  # Hw water
     82      28    1  -1.112800  1.444960e+01  1.816327e+01  3.057238e+01  # Ow water
     83      28    2   0.556400  1.526914e+01  1.817746e+01  3.106674e+01  # Hw water
     84      28    2   0.556400  1.392379e+01  1.748657e+01  3.099880e+01  # Hw water
     85      29    1  -1.112800  2.564303e+01  1.666486e+01  7.854705e+00  # Ow water
     86      29    2   0.556400  2.576364e+01  1.580031e+01  7.461975e+00  # Hw water
     87      29    2   0.556400  2.470649e+01  1.684090e+01  7.764456e+00  # Hw water
     88      30    1  -1.112800  5.117606e+00  4.683505e+00  1.991362e+01  # Ow water
     89      30    2   0.556400  5.132677e+00  4.921327e+00  1.898656e+01  # Hw water
     90      30    2   0.556400  5.984377e+00  4.313260e+00  2.008052e+01  # Hw water
     91      31    1  -1.112800  1.114714e+01  1.903329e+01  1.246436e+01  # Ow water
     92      31    2   0.556400  1.151572e+01  1.976554e+01  1.197021e+01  # Hw water
     93      31    2   0.556400  1.163833e+01  1.902673e+01  1.328590e+01  # Hw water
     94      32    1  -1.112800  1.928052e+01  3.097255e+01  1.885695e+01  # Ow water
     95      32    2   0.556400  1.852902e+01  3.106671e+01  1.944228e+01  # Hw water
     96      32    2   0.556400  2.003969e+01  3.096801e+01  1.943992e+01  # Hw water
     97      33    1  -1.112800  1.658987e+01  1.633793e+00  1.250091e+01  # Ow water
     98      33    2   0.556400  1.650103e+01  1.500000e+00  1.344454e+01  # Hw water
     99      33    2   0.556400  1.570644e+01  1.504290e+00  1.215593e+01  # Hw water
    100      34    1  -1.112800  2.236032e+01  2.823515e+01  3.070721e+01  # Ow water
    101      34    2   0.556400  2.172845e+01  2.885785e+01  3.106668e+01  # Hw water
    102      34    2   0.556400  2.320956e+01  2.854811e+01  3.101881e+01  # Hw water
    103      35    1  -1.112800  2.833016e+01  7.449590e+00  1.948352e+01  # Ow water
    104      35    2   0.556400  2.772524e+01  8.104110e+00  1.983267e+01  # Hw water
    105      35    2   0.556400  2.786726e+01  7.068930e+00  1.873717e+01  # Hw water
    106      36    1  -1.112800  5.924882e+00  7.959269e+00  7.644153e+00  # Ow water
    107      36    2   0.556400  5.612142e+00  8.653171e+00  8.224604e+00  # Hw water
    108      36    2   0.556400  6.225835e+00  7.269278e+00  8.235397e+00  # Hw water
    109      37    1  -1.112800  1.959212e+01  1.753513e+01  1.939055e+01  # Ow water
    110      37    2   0.556400  1.917212e+01  1.818377e+01  1.995543e+01  # Hw water
    111      37    2   0.556400  1.999576e+01  1.691421e+01  1.999698e+01  # Hw water
    112      38    1  -1.112800  2.150965e+01  1.747770e+01  1.602296e+01  # Ow water
    113      38    2   0.556400  2.147546e+01  1.652673e+01  1.612649e+01  # Hw water
    114      38    2   0.556400  2.067481e+01  1.778750e+01  1.637409e+01  # Hw water
    115      39    1  -1.112800  8.121292e+00  2.034467e+01  1.194353e+01  # Ow water
    116      39    2   0.556400  7.936480e+00  2.104373e+01  1.257074e+01  # Hw water
    117      39    2   0.556400  8.166620e+00  1.955044e+01  1.247585e+01  # Hw water
    118      40    1  -1.112800  2.533449e+01  1.786504e+01  1.126670e+01  # Ow water
    119      40    2   0.556400  2.575784e+01  1.705670e+01  1.097758e+01  # Hw water
    120      40    2   0.556400  2.595509e+01  1.825377e+01  1.188313e+01  # Hw water
    121      41    1  -1.112800  1.828686e+01  2.348850e+01  4.048795e+00  # Ow water
    122      41    2   0.556400  1.858411e+01  2.399198e+01  4.806673e+00  # Hw water
    123      41    2   0.556400  1.788417e+01  2.270532e+01  4.423910e+00  # Hw water
    124      42    1  -1.112800  3.106440e+01  4.545915e+00  2.095378e+01  # Ow water
    125      42    2   0.556400  3.102546e+01  3.812043e+00  2.034048e+01  # Hw water
    126      42    2   0.556400  3.098143e+01  5.324030e+00  2.040253e+01  # Hw water
    127      43    1  -1.112800  4.388284e+00  1.386648e+01  2.519951e+01  # Ow water
    128      43    2   0.556400  3.840227e+00  1.464233e+01  2.531751e+01  # Hw water
    129      43    2   0.556400  4.897790e+00  1.405034e+01  2.441031e+01  # Hw water
    130      44    1  -1.112800  3.023402e+01  2.364718e+01  6.568686e+00  # Ow water
    131      44    2   0.556400  3.101544e+01  2.352261e+01  7.107294e+00  # Hw water
    132      44    2   0.556400  2.958648e+01  2.305020e+01  6.943567e+00  # Hw water
    133      45    1  -1.112800  2.465416e+01  2.269360e+01  1.499975e+00  # Ow water
    134      45    2   0.556400  2.425610e+01  2.339913e+01  2.009868e+00  # Hw water
    135      45    2   0.556400  2.493821e+01  2.205535e+01  2.154338e+00  # Hw water
    136      46    1  -1.112800  1.507606e+00  2.546255e+01  9.524945e+00  # Ow water
    137      46    2   0.556400  1.500022e+00  2.462694e+01  9.058123e+00  # Hw water
    138      46    2   0.556400  1.499999e+00  2.522022e+01  1.045093e+01  # Hw water
    139      47    1  -1.112800  1.262029e+01  5.922005e+00  2.091368e+01  # Ow water
    140      47    2   0.556400  1.176447e+01  5.496102e+00  2.096281e+01  # Hw water
    141      47    2   0.556400  1.263798e+01  6.325715e+00  2.004596e+01  # Hw water
    142      48    1  -1.112800  2.104079e+01  1.520182e+00  2.366999e+01  # Ow water
    143      48    2   0.556400  2.023144e+01  1.502074e+00  2.315924e+01  # Hw water
    144      48    2   0.556400  2.173845e+01  1.499995e+00  2.301493e+01  # Hw water
    145      49    1  -1.112800  1.550136e+01  2.155673e+01  5.605642e+00  # Ow water
    146      49    2   0.556400  1.477659e+01  2.217601e+01  5.519430e+00  # Hw water
    147      49    2   0.556400  1.614122e+01  2.201095e+01  6.153821e+00  # Hw water
    148      50    1  -1.112800  1.273790e+01  1.590662e+01  5.103248e+00  # Ow water
    149      50    2   0.556400  1.242611e+01  1.510026e+01  4.692394e+00  # Hw water
    150      50    2   0.556400  1.248583e+01  1.659981e+01  4.493178e+00  # Hw water
    151      51    1  -1.112800  1.236756e+01  2.639617e+01  1.125272e+01  # Ow water
    152      51    2   0.556400  1.311305e+01  2.616927e+01  1.069685e+01  # Hw water
    153      51    2   0.556400  1.270599e+01  2.633256e+01  1.214583e+01  # Hw water
    154      52    1  -1.112800  1.181064e+01  3.106671e+01  1.395772e+01  # Ow water
    155      52    2   0.556400  1.208920e+01  3.083681e+01  1.307127e+01  # Hw water
    156      52    2   0.556400  1.125840e+01  3.033499e+01  1.423310e+01  # Hw water
    157      53    1  -1.112800  1.497476e+00  2.027988e+00  2.480158e+01  # Ow water
    158      53    2   0.556400  2.291867e+00  1.494264e+00  2.478399e+01  # Hw water
    159      53    2   0.556400  1.498635e+00  2.431521e+00  2.566956e+01  # Hw water
    160      54    1  -1.112800  2.119971e+01  7.078250e+00  4.504787e+00  # Ow water
    161      54    2   0.556400  2.107106e+01  7.146990e+00  3.558768e+00  # Hw water
    162      54    2   0.556400  2.192685e+01  7.671965e+00  4.691868e+00  # Hw water
    163      55    1  -1.112800  1.632218e+00  7.113942e+00  1.500013e+00  # Ow water
    164      55    2   0.556400  1.499949e+00  6.429150e+00  2.155600e+00  # Hw water
    165      55    2   0.556400  1.516838e+00  7.932949e+00  1.981827e+00  # Hw water
    166      56    1  -1.112800  1.063836e+01  2.585378e+01  9.079874e+00  # Ow water
    167      56    2   0.556400  1.133692e+01  2.520036e+01  9.115939e+00  # Hw water
    168      56    2   0.556400  1.089581e+01  2.644137e+01  8.369460e+00  # Hw water
    169      57    1  -1.112800  2.131649e+01  1.384329e+01  1.395935e+01  # Ow water
    170      57    2   0.556400  2.039246e+01  1.359896e+01  1.401134e+01  # Hw water
    171      57    2   0.556400  2.137490e+01  1.466597e+01  1.444515e+01  # Hw water
    172      58    1  -1.112800  8.233602e+00  1.544213e+00  1.867579e+01  # Ow water
    173      58    2   0.556400  7.517334e+00  1.502346e+00  1.930938e+01  # Hw water
    174      58    2   0.556400  9.027843e+00  1.499390e+00  1.920814e+01  # Hw water
    175      59    1  -1.112800  1.175306e+01  2.232151e+01  3.106674e+01  # Ow water
    176      59    2   0.556400  1.234347e+01  2.307493e+01  3.106485e+01  # Hw water
    177      59    2   0.556400  1.233439e+01  2.156106e+01  3.106526e+01  # Hw water
    178      60    1  -1.112800  3.089245e+01  8.153790e+00  2.407488e+01  # Ow water
    179      60    2   0.556400  3.106589e+01  9.094334e+00  2.411394e+01  # Hw water
    180      60    2   0.556400  3.106746e+01  7.840426e+00  2.496223e+01  # Hw water
    181      61    1  -1.112800  2.105069e+01  2.238570e+01  3.097992e+01  # Ow water
    182      61    2   0.556400  2.057786e+01  2.155797e+01  3.106671e+01  # Hw water
    183      61    2   0.556400  2.197322e+01  2.214524e+01  3.106562e+01  # Hw water
    184      62    1  -1.112800  9.630764e+00  3.106670e+01  2.263430e+01  # Ow water
    185      62    2   0.556400  9.168876e+00  3.024303e+01  2.247792e+01  # Hw water
    186      62    2   0.556400  1.055817e+01  3.083442e+01  2.258752e+01  # Hw water
    187      63    1  -1.112800  1.988365e+01  1.506825e+00  1.926684e+01  # Ow water
    188      63    2   0.556400  2.048685e+01  2.182795e+00  1.957578e+01  # Hw water
    189      63    2   0.556400  1.973633e+01  1.719617e+00  1.834530e+01  # Hw water
    190      64    1  -1.112800  1.847054e+01  1.778515e+01  2.284593e+01  # Ow water
    191      64    2   0.556400  1.794961e+01  1.834611e+01  2.227133e+01  # Hw water
    192      64    2   0.556400  1.895308e+01  1.721277e+01  2.224947e+01  # Hw water
    193      65    1  -1.112800  2.674835e+01  2.168492e+01  1.107855e+01  # Ow water
    194      65    2   0.556400  2.680590e+01  2.073892e+01  1.121265e+01  # Hw water
    195      65    2   0.556400  2.728765e+01  2.205931e+01  1.177512e+01  # Hw water
    196      66    1  -1.112800  7.371146e+00  1.500037e+00  8.620464e+00  # Ow water
    197      66    2   0.556400  8.235248e+00  1.500254e+00  8.208692e+00  # Hw water
    198      66    2   0.556400  7.488459e+00  2.005535e+00  9.424789e+00  # Hw water
    199      67    1  -1.112800  1.574716e+01  1.183073e+01  1.431159e+01  # Ow water
    200      67    2   0.556400  1.629755e+01  1.117229e+01  1.473557e+01  # Hw water
    201      67    2   0.556400  1.567020e+01  1.253191e+01  1.495863e+01  # Hw water
    202      68    1  -1.112800  1.432294e+01  1.157033e+01  7.639574e+00  # Ow water
    203      68    2   0.556400  1.506888e+01  1.208019e+01  7.955555e+00  # Hw water
    204      68    2   0.556400  1.456342e+01  1.066027e+01  7.813309e+00  # Hw water
    205      69    1  -1.112800  1.601812e+00  2.431337e+01  2.884278e+01  # Ow water
    206      69    2   0.556400  1.500736e+00  2.525309e+01  2.869134e+01  # Hw water
    207      69    2   0.556400  1.501176e+00  2.391851e+01  2.797664e+01  # Hw water
    208      70    1  -1.112800  3.103002e+01  7.027683e+00  1.139690e+01  # Ow water
    209      70    2   0.556400  3.106670e+01  6.807171e+00  1.046617e+01  # Hw water
    210      70    2   0.556400  3.013975e+01  6.797904e+00  1.166307e+01  # Hw water
    211      71    1  -1.112800  1.479208e+01  1.024164e+01  2.924826e+01  # Ow water
    212      71    2   0.556400  1.497383e+01  1.099825e+01  2.980571e+01  # Hw water
    213      71    2   0.556400  1.398486e+01  1.047114e+01  2.878787e+01  # Hw water
    214      72    1  -1.112800  3.006650e+01  2.430860e+01  2.265016e+01  # Ow water
    215      72    2   0.556400  2.945005e+01  2.359019e+01  2.250832e+01  # Hw water
    216      72    2   0.556400  2.958549e+01  2.493413e+01  2.319198e+01  # Hw water
    217      73    1  -1.112800  6.133142e+00  2.428725e+01  2.499676e+01  # Ow water
    218      73    2   0.556400  6.426647e+00  2.448652e+01  2.410773e+01  # Hw water
    219      73    2   0.556400  5.573124e+00  2.502581e+01  2.523581e+01  # Hw water
    220      74    1  -1.112800  1.918547e+01  1.120767e+01  1.996478e+00  # Ow water
    221      74    2   0.556400  1.878048e+01  1.049654e+01  1.499992e+00  # Hw water
    222      74    2   0.556400  1.997794e+01  1.142279e+01  1.504609e+00  # Hw water
    223      75    1  -1.112800  1.582332e+00  1.621483e+00  1.613378e+00  # Ow water
    224      75    2   0.556400  1.673965e+00  2.567516e+00  1.499997e+00  # Hw water
    225      75    2   0.556400  1.500000e+00  1.499999e+00  2.559259e+00  # Hw water
    226      76    1  -1.112800  1.727320e+01  2.059306e+00  1.860709e+01  # Ow water
    227      76    2   0.556400  1.690604e+01  1.502180e+00  1.929340e+01  # Hw water
    228      76    2   0.556400  1.729760e+01  1.499527e+00  1.783102e+01  # Hw water
    229      77    1  -1.112800  3.035211e+01  3.103164e+01  8.497067e+00  # Ow water
    230      77    2   0.556400  2.955644e+01  3.106669e+01  9.028027e+00  # Hw water
    231      77    2   0.556400  3.106670e+01  3.106661e+01  9.132960e+00  # Hw water
    232      78    1  -1.112800  2.416271e+01  3.056269e+01  2.969654e+01  # Ow water
    233      78    2   0.556400  2.409562e+01  3.106652e+01  3.050764e+01  # Hw water
    234      78    2   0.556400  2.365768e+01  3.106670e+01  2.905847e+01  # Hw water
    235      79    1  -1.112800  2.142990e+01  2.860610e+01  2.299995e+01  # Ow water
    236      79    2   0.556400  2.099438e+01  2.860495e+01  2.385233e+01  # Hw water
    237      79    2   0.556400  2.219879e+01  2.804933e+01  2.312256e+01  # Hw water
    238      80    1  -1.112800  2.402818e+01  4.778004e+00  1.966344e+01  # Ow water
    239      80    2   0.556400  2.425411e+01  4.495434e+00  2.054963e+01  # Hw water
    240      80    2   0.556400  2.386957e+01  3.964173e+00  1.918516e+01  # Hw water
    241      81    1  -1.112800  2.505043e+01  2.332295e+01  1.216147e+01  # Ow water
    242      81    2   0.556400  2.556825e+01  2.361301e+01  1.291243e+01  # Hw water
    243      81    2   0.556400  2.470245e+01  2.413061e+01  1.178355e+01  # Hw water
    244      82    1  -1.112800  6.745457e+00  3.062187e+01  1.631270e+01  # Ow water
    245      82    2   0.556400  6.447730e+00  2.971599e+01  1.622918e+01  # Hw water
    246      82    2   0.556400  6.877827e+00  3.074529e+01  1.725264e+01  # Hw water
    247      83    1  -1.112800  1.499830e+00  1.117576e+01  2.459297e+01  # Ow water
    248      83    2   0.556400  1.520138e+00  1.152852e+01  2.548256e+01  # Hw water
    249      83    2   0.556400  1.693089e+00  1.024436e+01  2.469967e+01  # Hw water
    250      84    1  -1.112800  1.260826e+01  1.625263e+01  7.575789e+00  # Ow water
    251      84    2   0.556400  1.355000e+01  1.638236e+01  7.687700e+00  # Hw water
    252      84    2   0.556400  1.235492e+01  1.568979e+01  8.307397e+00  # Hw water
    253      85    1  -1.112800  9.007875e+00  1.705919e+01  1.284774e+01  # Ow water
    254      85    2   0.556400  9.249779e+00  1.613921e+01  1.274123e+01  # Hw water
    255      85    2   0.556400  8.055019e+00  1.706883e+01  1.275718e+01  # Hw water
    256      86    1  -1.112800  2.357887e+01  1.108439e+01  5.842015e+00  # Ow water
    257      86    2   0.556400  2.381332e+01  1.189288e+01  5.386385e+00  # Hw water
    258      86    2   0.556400  2.387633e+01  1.122092e+01  6.741518e+00  # Hw water
    259      87    1  -1.112800  2.982690e+01  2.072761e+01  1.645797e+01  # Ow water
    260      87    2   0.556400  3.004896e+01  2.099479e+01  1.734990e+01  # Hw water
    261      87    2   0.556400  3.056352e+01  2.018317e+01  1.618011e+01  # Hw water
    262      88    1  -1.112800  1.641214e+01  9.095105e+00  6.198016e+00  # Ow water
    263      88    2   0.556400  1.728198e+01  8.997558e+00  5.810604e+00  # Hw water
    264      88    2   0.556400  1.605532e+01  9.884572e+00  5.791019e+00  # Hw water
    265      89    1  -1.112800  1.582022e+01  2.429965e+01  3.438004e+00  # Ow water
    266      89    2   0.556400  1.643910e+01  2.502583e+01  3.361304e+00  # Hw water
    267      89    2   0.556400  1.564543e+01  2.423141e+01  4.376631e+00  # Hw water
    268      90    1  -1.112800  2.742240e+01  2.557478e+01  1.414936e+01  # Ow water
    269      90    2   0.556400  2.669922e+01  2.510720e+01  1.456722e+01  # Hw water
    270      90    2   0.556400  2.815411e+01  2.547921e+01  1.475903e+01  # Hw water
    271      91    1  -1.112800  1.963858e+01  2.730403e+01  2.827916e+01  # Ow water
    272      91    2   0.556400  1.933644e+01  2.704564e+01  2.740842e+01  # Hw water
    273      91    2   0.556400  1.961537e+01  2.826087e+01  2.826709e+01  # Hw water
    274      92    1  -1.112800  1.658728e+01  1.560078e+00  2.352684e+00  # Ow water
    275      92    2   0.556400  1.578773e+01  1.540424e+00  1.826804e+00  # Hw water
    276      92    2   0.556400  1.627865e+01  1.627773e+00  3.256228e+00  # Hw water
    277      93    1  -1.112800  2.708495e+01  5.278191e+00  1.695140e+01  # Ow water
    278      93    2   0.556400  2.781140e+01  4.722640e+00  1.666879e+01  # Hw water
    279      93    2   0.556400  2.658832e+01  5.449352e+00  1.615122e+01  # Hw water
    280      94    1  -1.112800  2.206189e+01  4.749854e+00  2.687141e+01  # Ow water
    281      94    2   0.556400  2.210497e+01  4.620122e+00  2.781880e+01  # Hw water
    282      94    2   0.556400  2.283557e+01  5.274534e+00  2.666560e+01  # Hw water
    283      95    1  -1.112800  1.472372e+01  2.619965e+01  2.055840e+01  # Ow water
    284      95    2   0.556400  1.493633e+01  2.696337e+01  2.109482e+01  # Hw water
    285      95    2   0.556400  1.460272e+01  2.548969e+01  2.118891e+01  # Hw water
    286      96    1  -1.112800  3.710130e+00  1.931269e+00  2.758327e+01  # Ow water
    287      96    2   0.556400  4.027964e+00  2.831868e+00  2.751899e+01  # Hw water
    288      96    2   0.556400  4.010913e+00  1.512486e+00  2.677681e+01  # Hw water
    289      97    1  -1.112800  2.657287e+01  2.161994e+01  2.684287e+01  # Ow water
    290      97    2   0.556400  2.668456e+01  2.101627e+01  2.610847e+01  # Hw water
    291      97    2   0.556400  2.617738e+01  2.240016e+01  2.645418e+01  # Hw water
    292      98    1  -1.112800  1.678926e+01  1.818972e+01  9.417653e+00  # Ow water
    293      98    2   0.556400  1.713384e+01  1.821885e+01  8.525106e+00  # Hw water
    294      98    2   0.556400  1.640191e+01  1.731800e+01  9.497036e+00  # Hw water
    295      99    1  -1.112800  1.503925e+00  5.098384e+00  7.707613e+00  # Ow water
    296      99    2   0.556400  1.550300e+00  5.665126e+00  8.477601e+00  # Hw water
    297      99    2   0.556400  1.501037e+00  5.702276e+00  6.964959e+00  # Hw water
    298     100    1  -1.112800  2.438165e+00  1.499996e+00  5.719217e+00  # Ow water
    299     100    2   0.556400  1.499989e+00  1.587870e+00  5.550890e+00  # Hw water
    300     100    2   0.556400  2.841449e+00  1.529516e+00  4.851623e+00  # Hw water
    301     101    1  -1.112800  1.248226e+01  2.815836e+01  1.500005e+00  # Ow water
    302     101    2   0.556400  1.281178e+01  2.861707e+01  2.272811e+00  # Hw water
    303     101    2   0.556400  1.293738e+01  2.731632e+01  1.508494e+00  # Hw water
    304     102    1  -1.112800  8.216462e+00  1.510614e+01  1.010328e+01  # Ow water
    305     102    2   0.556400  7.770911e+00  1.575266e+01  1.065075e+01  # Hw water
    306     102    2   0.556400  9.144004e+00  1.521034e+01  1.031551e+01  # Hw water
    307     103    1  -1.112800  8.141529e+00  1.380781e+01  2.326803e+01  # Ow water
    308     103    2   0.556400  7.207476e+00  1.370306e+01  2.308692e+01  # Hw water
    309     103    2   0.556400  8.353149e+00  1.308740e+01  2.386171e+01  # Hw water
    310     104    1  -1.112800  1.499981e+00  2.766915e+01  1.282098e+01  # Ow water
    311     104    2   0.556400  2.400407e+00  2.767257e+01  1.314571e+01  # Hw water
    312     104    2   0.556400  1.543989e+00  2.718460e+01  1.199666e+01  # Hw water
    313     105    1  -1.112800  2.858017e+01  1.789206e+01  1.660824e+00  # Ow water
    314     105    2   0.556400  2.881268e+01  1.786553e+01  2.588974e+00  # Hw water
    315     105    2   0.556400  2.833841e+01  1.880415e+01  1.499964e+00  # Hw water
    316     106    1  -1.112800  1.017729e+01  1.045499e+01  6.399658e+00  # Ow water
    317     106    2   0.556400  1.063546e+01  1.035641e+01  5.565034e+00  # Hw water
    318     106    2   0.556400  1.087527e+01  1.057065e+01  7.044386e+00  # Hw water
    319     107    1  -1.112800  2.839121e+01  2.394416e+01  1.717893e+01  # Ow water
    320     107    2   0.556400  2.751201e+01  2.372164e+01  1.687280e+01  # Hw water
    321     107    2   0.556400  2.874159e+01  2.312165e+01  1.752089e+01  # Hw water
    322     108    1  -1.112800  3.911415e+00  3.375574e+00  2.507994e+01  # Ow water
    323     108    2   0.556400  3.478949e+00  3.632310e+00  2.426552e+01  # Hw water
    324     108    2   0.556400  4.720990e+00  2.949818e+00  2.479790e+01  # Hw water
    325     109    1  -1.112800  2.448329e+00  2.254434e+01  1.093181e+01  # Ow water
    326     109    2   0.556400  1.685102e+00  2.236064e+01  1.038412e+01  # Hw water
    327     109    2   0.556400  2.112157e+00  2.310361e+01  1.163212e+01  # Hw water
    328     110    1  -1.112800  4.302277e+00  4.826464e+00  3.011797e+01  # Ow water
    329     110    2   0.556400  4.120062e+00  4.726525e+00  3.105233e+01  # Hw water
    330     110    2   0.556400  4.259784e+00  3.936308e+00  2.976862e+01  # Hw water
    331     111    1  -1.112800  1.481069e+01  2.889233e+01  1.033967e+01  # Ow water
    332     111    2   0.556400  1.472712e+01  2.957801e+01  9.677033e+00  # Hw water
    333     111    2   0.556400  1.449214e+01  2.810022e+01  9.906859e+00  # Hw water
    334     112    1  -1.112800  1.919539e+01  2.477955e+01  1.814838e+01  # Ow water
    335     112    2   0.556400  1.876955e+01  2.458460e+01  1.731359e+01  # Hw water
    336     112    2   0.556400  1.948072e+01  2.392705e+01  1.847710e+01  # Hw water
    337     113    1  -1.112800  1.600063e+01  3.101308e+01  8.016875e+00  # Ow water
    338     113    2   0.556400  1.653755e+01  3.106671e+01  8.807485e+00  # Hw water
    339     113    2   0.556400  1.662844e+01  3.106670e+01  7.296316e+00  # Hw water
    340     114    1  -1.112800  5.162201e+00  1.833659e+01  1.390395e+01  # Ow water
    341     114    2   0.556400  5.822134e+00  1.848761e+01  1.322726e+01  # Hw water
    342     114    2   0.556400  5.034475e+00  1.919385e+01  1.431018e+01  # Hw water
    343     115    1  -1.112800  7.093455e+00  3.035069e+01  2.837067e+01  # Ow water
    344     115    2   0.556400  6.906637e+00  2.949412e+01  2.798648e+01  # Hw water
    345     115    2   0.556400  6.453509e+00  3.044181e+01  2.907664e+01  # Hw water
    346     116    1  -1.112800  1.044555e+01  7.702098e+00  2.552547e+01  # Ow water