1572
Atoms. Timestep: 0
Ow 23.4965 18.1521 2.15516
H 24.1286 17.4687 1.93239
H 22.6423 17.7466 2.00655
Ow 8.08226 0.203293 14.8313
H 8.6346 0.407207 15.586
H 7.19493 0.160862 15.1878
Ow 7.56085 12.1924 23.0254
H 7.24953 11.312 22.8148
H 6.8275 12.6031 23.4833
Ow 12.857 7.02495 0.14757
H 13.2999 7.43464 0.890707
H 12.048 7.52601 25.6759
Ow 5.28333 18.719 22.7315
H 5.40287 19.1751 21.8985
H 5.57529 17.8238 22.5591
Ow 24.484 6.09354 12.361
H 24.4655 6.26069 13.3033
H 25.4052 6.18783 12.1186
Ow 12.6372 8.21098 14.8513
H 11.7641 7.93908 14.5685
H 12.9681 7.4682 15.3563
Ow 22.4154 5.80955 3.26521
H 22.3984 6.7063 3.59957
H 21.5478 5.67981 2.88213
Ow 23.0345 1.23731 12.9079
H 23.6073 0.471775 12.862
H 23.5321 1.8793 13.4144
Ow 11.8862 20.8709 1.33819
H 11.4135 21.25 2.07921
H 11.6248 21.4051 0.588157
Ow 18.9386 24.5455 9.11103
H 19.6081 24.9895 9.63152
H 18.4041 25.2542 8.75281
Ow 13.8121 10.3097 4.86404
H 13.1928 9.76098 5.34532
H 13.8222 9.94181 3.9804
Ow 23.2953 9.29567 16.7847
H 22.4889 8.82346 16.992
H 23.0547 10.2201 16.8465
Ow 23.245 16.3523 4.92831
H 23.7155 16.0493 4.15171
H 22.5293 15.7257 5.03503
Ow 19.9199 9.8258 4.01147
H 20.0199 10.7777 4.02001
H 19.6785 9.61794 3.10884
Ow 19.24 8.59532 22.6322
H 19.5113 8.50969 21.7183
H 18.6158 9.32106 22.6303
Ow 20.6028 19.7599 18.3373
H 20.0398 20.1802 17.6873
H 21.1393 20.4716 18.6863
Ow 15.8007 5.60764 7.78124
H 15.049 5.86658 8.31424
H 15.4155 5.22662 6.99213
Ow 20.4963 8.05867 25.0376
H 20.0782 8.43638 0.179808
H 19.8988 8.26293 24.3182
Ow 7.46306 7.85825 18.1285
H 8.01921 8.62802 18.0085
H 7.3833 7.76539 19.0778
Ow 23.2434 20.0961 25.0769
H 22.4276 20.0828 24.5765
H 23.9295 20.1825 24.4151
Ow 6.44635 4.21026 1.01148
H 5.5896 3.93732 1.33968
H 6.28091 5.04558 0.574335
Ow 2.61011 23.3285 0.98444
H 3.39736 23.2481 0.445941
H 2.75327 22.722 1.71098
Ow 7.63386 5.52396 22.7501
H 8.52051 5.40177 23.0895
H 7.3123 4.63607 22.5937
Ow 13.4038 22.7929 5.55754
H 13.2082 23.7162 5.39778
H 13.4122 22.7109 6.51118
Ow 25.2709 16.8962 12.2587
H 24.5364 17.4671 12.484
H 0.414346 17.3747 12.5529
Ow 1.34084 19.2544 19.5054
H 0.443595 19.3029 19.8353
H 1.61626 18.3565 19.6903
Ow 3.48453 24.2951 14.8426
H 3.89084 23.4285 14.8498
H 2.83544 24.2617 15.5453
Ow 11.2015 15.7947 5.22179
H 12.1133 15.9178 5.48607
H 11.2099 14.9946 4.69651
Ow 19.1735 2.62517 3.48059
H 18.6413 2.56563 4.27396
H 19.2284 3.56324 3.29829
Ow 5.63434 14.7208 2.46723
H 4.69591 14.9093 2.47392
H 6.01378 15.3701 3.0594
Ow 23.0487 0.819013 0.563209
H 23.1634 0.212982 1.29518
H 22.3361 1.39571 0.838582
Ow 5.20563 0.395661 19.1908
H 5.55486 1.25348 19.4325
H 4.25643 0.492829 19.267
Ow 14.822 19.8384 25.3227
H 14.1183 19.3614 24.8828
H 14.4464 20.6978 25.5139
Ow 17.1485 0.210483 5.21519
H 17.9972 25.4074 5.29906
H 17.3093 1.10882 5.50393
Ow 12.5041 3.81441 2.97567
H 12.2906 4.04772 3.87913
H 13.4514 3.67757 2.98057
Ow 21.9713 21.9479 19.1828
H 21.9193 22.4233 18.3537
H 22.9011 21.7447 19.285
Ow 11.4253 22.8845 24.8307
H 11.9136 22.2307 24.3304
H 12.0997 23.4375 25.2254
Ow 18.9668 15.0512 18.3361
H 19.7468 14.8132 18.8372
H 18.4414 14.2513 18.3155
Ow 10.2994 4.75849 19.2439
H 9.83113 3.94637 19.4375
H 10.103 4.93532 18.3239
Ow 22.4299 17.7662 22.3758
H 21.7949 17.0504 22.3491
H 21.897 18.5609 22.3486
Ow 14.7803 21.554 19.9081
H 14.5539 20.6331 19.7785
H 14.2027 22.0295 19.311
Ow 4.49125 16.1137 13.6095
H 4.05778 15.2767 13.4427
H 5.42363 15.9272 13.4994
Ow 22.5797 11.7152 12.2628
H 22.4811 12.2815 13.0282
H 22.2863 12.2528 11.5272
Ow 8.19673 17.9413 21.0696
H 7.75767 18.7649 20.8571
H 8.94897 18.2007 21.6017
Ow 8.3161 13.0071 12.9603
H 9.19193 13.1282 13.327
H 7.89101 13.8579 13.068
Ow 5.13582 12.655 10.9952
H 4.5041 12.1791 10.4561
H 5.8561 12.0376 11.1224
Ow 24.1208 4.26402 24.1773
H 24.792 3.80656 24.6838
H 24.4565 4.26605 23.2809
Ow 17.3705 9.64087 19.6578
H 18.2975 9.40812 19.6039
H 17.2659 10.3561 19.0302
Ow 18.326 9.74788 12.3585
H 19.108 9.19665 12.3894
H 17.6099 9.16255 12.6049
Ow 15.5902 16.1104 19.5162
H 15.9258 16.9989 19.3977
H 16.3696 15.5795 19.6806
Ow 17.4174 3.79423 11.9509
H 18.3397 3.61372 11.7694
H 17.3717 3.87528 12.9036
Ow 6.30388 9.49076 22.5222
H 6.3255 9.00219 23.345
H 5.38638 9.46322 22.2508
Ow 25.2947 19.3326 14.4498
H 24.5133 19.4147 14.9966
H 0.38983 19.3052 15.0722
Ow 19.3257 8.95217 1.58509
H 18.5438 8.55064 1.96415
H 19.0734 9.86086 1.42124
Ow 15.9977 19.5238 3.76681
H 15.8977 18.7122 4.2644
H 16.3517 20.1503 4.39806
Ow 10.1675 2.73739 2.04304
H 10.929 3.24255 2.32777
H 10.438 1.8237 2.13377
Ow 4.19557 8.53308 10.4214
H 3.53058 8.33286 9.76263
H 4.8113 9.11237 9.97244
Ow 22.8141 9.01102 12.5335
H 22.7369 9.94677 12.3473
H 23.2812 8.65379 11.7782
Ow 16.2453 7.78874 12.3225
H 16.604 7.16804 11.6883
H 15.8876 8.49793 11.7883
Ow 16.0476 23.5264 3.39717
H 16.483 22.9006 3.97592
H 15.975 24.3256 3.91905
Ow 14.9154 12.5712 20.6875
H 15.8275 12.6089 20.3997
H 14.9446 12.0905 21.5148
Ow 22.5593 7.41291 20.0948
H 22.0519 6.82981 19.5302
H 22.3494 8.29274 19.7816
Ow 2.16482 10.6036 24.1832
H 2.75388 11.3439 24.3288
H 2.5913 10.0886 23.4983
Ow 2.7655 19.7611 25.7493
H 3.70458 19.5818 25.7023
H 2.69709 20.7105 25.6488
Ow 24.3454 2.80609 15.364
H 24.9877 3.37137 15.7931
H 24.3722 1.99007 15.8636
Ow 0.923207 14.6602 21.6872
H 0.45286 15.022 20.9361
H 1.48833 15.374 21.9829
Ow 16.1673 11.8637 2.95388
H 16.6473 11.7057 2.14098
H 16.2574 12.8042 3.10696
Ow 2.8438 16.8992 18.2286
H 2.69769 16.0102 17.9051
H 3.29631 16.7794 19.0635
Ow 17.666 15.7103 11.5737
H 18.2692 15.8457 10.8429
H 17.1957 16.5401 11.6535
Ow 22.6403 15.1963 12.7673
H 22.58 14.7319 13.6021
H 23.5549 15.4732 12.7123
Ow 8.03185 1.71274 22.5622
H 8.43847 1.63434 21.6992
H 7.26924 2.27301 22.4182
Ow 4.82746 22.0622 22.3199
H 5.42083 21.5855 21.7395
H 3.96632 21.6811 22.1484
Ow 1.90416 11.9319 2.682
H 2.79732 12.1143 2.97397
H 1.69094 12.657 2.0946
Ow 16.5577 8.29787 2.51495
H 16.7451 7.475 2.06332
H 15.6398 8.47891 2.31272
Ow 25.4565 16.1382 19.7748
H 24.9191 16.9303 19.7677
H 0.300036 16.1632 18.9442
Ow 12.6102 12.6202 18.9852
H 12.8848 13.3568 18.4391
H 13.3565 12.4579 19.5622
Ow 0.949906 22.8829 21.6244
H 1.29068 23.7048 21.9773
H 1.73013 22.365 21.4264
Ow 14.3089 19.7595 10.1557
H 14.2314 18.8072 10.0979
H 15.2496 19.9196 10.2314
Ow 10.7392 23.9168 14.1069
H 10.3393 24.7263 13.7891
H 11.6784 24.0449 13.9742
Ow 3.07274 20.5264 8.92931
H 4.02862 20.4861 8.95903
H 2.78513 19.8819 9.5759
Ow 5.95481 24.6983 21.7373
H 5.37581 23.9369 21.7725
H 5.52835 25.2959 21.1231
Ow 5.93217 6.30371 24.7709
H 6.43254 6.16682 23.9664
H 6.35436 7.0527 25.1916
Ow 25.7408 6.15891 21.0413
H 0.477435 6.41659 21.8865
H 0.424964 6.82368 20.4293
Ow 9.33303 11.2111 9.00707
H 8.91639 12.0559 8.8372
H 9.74888 10.9774 8.1772
Ow 15.1116 16.5416 14.0501
H 14.4638 17.0314 14.5569
H 15.9375 16.9977 14.2116
Ow 17.064 13.3082 23.3588
H 17.2386 12.4616 22.9477
H 17.7981 13.4396 23.9589
Ow 2.05904 12.7161 18.5036
H 2.95822 12.8368 18.8087
H 2.06123 11.8554 18.0848
Ow 5.7441 6.5819 14.7162
H 5.97267 6.97763 13.8751
H 5.79335 7.30409 15.3425
Ow 13.644 9.67771 22.1272
H 12.9517 10.3329 22.0399
H 13.4361 9.01913 21.4644
Ow 14.3482 18.8254 6.97389
H 13.7993 19.2109 6.29099
H 13.7387 18.6147 7.68126
Ow 1.39445 24.4565 7.23649
H 1.39528 23.5031 7.32144
H 1.43624 24.6134 6.29316
Ow 10.0927 2.58277 24.1987
H 10.7287 1.87122 24.2717
H 9.52479 2.3235 23.473
Ow 1.90694 10.0169 17.8408
H 2.80214 9.81852 18.1156
H 1.83994 9.65077 16.9589
Ow 10.3113 5.2199 23.8783
H 10.6371 5.5278 23.0325
H 10.0662 4.30767 23.7233
Ow 17.6578 23.0348 11.5075
H 16.754 23.2134 11.2476
H 18.1474 23.0295 10.6851
Ow 22.873 19.6335 16.2734
H 23.044 20.5713 16.1866
H 22.1775 19.576 16.9286
Ow 24.7385 11.2823 0.454862
H 24.2846 10.4878 0.735897
H 24.2505 11.9957 0.866096
Ow 2.41391 0.94793 10.1973
H 1.95258 0.385272 9.57534
H 3.3267 0.92536 9.91
Ow 4.96187 0.552235 12.7378
H 5.38241 0.51146 13.5967
H 5.21437 25.3667 12.3079
Ow 14.9773 4.66163 20.1744
H 15.7037 4.0528 20.308
H 14.7466 4.56093 19.2509
Ow 21.1584 17.1363 14.1069
H 21.1958 16.7403 14.9776
H 21.5311 16.4735 13.5256
Ow 4.89634 4.41157 18.269
H 5.51919 4.35058 17.5448
H 4.1159 3.95601 17.9534
Ow 0.919262 6.6045 17.5014
H 0.512381 7.28309 18.0401
H 1.86001 6.74546 17.608
Ow 7.28166 2.41356 11.3117
H 7.056 2.86828 12.1232
H 7.077 3.04219 10.6195
Ow 6.37191 17.445 18.3386
H 5.89028 16.936 18.9906
H 7.25808 17.5131 18.6939
Ow 0.713324 14.7762 14.1034
H 0.474285 15.5265 13.5592
H 1.58027 14.9944 14.4455
Ow 15.0995 15.8348 23.8095
H 14.8283 15.5092 22.9512
H 14.512 15.4001 24.4276
Ow 10.2872 13.4793 0.491037
H 10.0582 12.7353 25.5657
H 11.1288 13.7834 0.151319
Ow 0.31746 10.7643 4.58649
H 0.908283 11.1968 3.97
H 0.882211 10.4935 5.31034
Ow 23.3863 8.88352 1.27767
H 23.4463 8.268 0.54708
H 22.6357 8.57854 1.78736
Ow 9.95457 16.9412 7.52828
H 10.2726 16.4378 6.77884
H 9.20671 16.4403 7.85391
Ow 21.8041 1.99526 4.10662
H 22.0583 1.08604 3.94866
H 20.9527 2.08429 3.67851
Ow 4.5532 17.126 6.26212
H 4.66338 16.3307 6.78336
H 5.28975 17.1162 5.65087
Ow 21.2498 7.75631 17.177
H 21.8608 7.19772 16.6965
H 20.5863 7.99774 16.5307
Ow 24.9072 19.146 9.76838
H 24.2035 18.507 9.88069
H 24.846 19.4116 8.85081
Ow 17.5858 16.5236 24.8079
H 16.7368 16.1369 24.5934
H 18.2005 15.7911 24.7664
Ow 22.0684 22.548 10.7978
H 21.5606 23.3593 10.8151
H 22.9326 22.8125 10.4823
Ow 11.0689 10.5571 19.656
H 11.6066 9.76708 19.7111
H 11.6334 11.2024 19.2305
Ow 20.1664 19.2143 21.4293
H 20.3055 19.0908 20.4903
H 20.8109 19.8752 21.6825
Ow 23.4636 9.52071 9.09037
H 23.3059 10.4485 8.91578
H 24.3733 9.48338 9.38604
Ow 13.5162 24.4906 14.0363
H 14.043 24.5686 13.2409
H 14.1116 24.1104 14.6821
Ow 17.1888 10.7226 22.2756
H 16.678 10.0545 22.7326
H 16.9915 10.5836 21.3493
Ow 18.1962 10.9161 6.6703
H 18.8096 10.304 7.07678
H 18.7528 11.5895 6.27912
Ow 16.0787 11.7749 10.6275
H 16.5999 12.108 9.89698
H 15.5855 12.5349 10.9366
Ow 15.1873 7.67498 20.0025
H 15.9998 8.04353 20.3492
H 15.2715 6.73216 20.1447
Ow 13.9858 0.380481 21.3078
H 13.9032 1.26467 20.9505
H 13.2724 25.5209 20.9002
Ow 21.0138 7.16049 8.80995
H 21.7039 7.36846 9.43988
H 20.5772 7.99668 8.6475
Ow 14.7525 1.39869 11.4961
H 14.9136 0.459003 11.5815
H 14.5206 1.68366 12.38
Ow 16.0294 17.2481 5.52583
H 16.8967 17.4873 5.85267
H 15.4199 17.7 6.10941
Ow 13.5353 22.8285 17.9654
H 12.839 22.3875 17.4787
H 14.2275 22.9695 17.3194
Ow 0.315422 4.12484 6.72749
H 25.2028 4.42104 7.25155
H 0.519991 4.86782 6.15972
Ow 2.70879 16.9094 22.1847
H 2.08556 17.5624 22.5031
H 3.13776 16.5817 22.9752
Ow 22.2749 13.1492 24.6299
H 22.852 13.8946 24.4643
H 21.3912 13.5123 24.5721
Ow 10.9675 13.1053 14.0617
H 11.7295 13.6846 14.053
H 10.8516 12.8751 14.9835
Ow 21.2359 2.30938 19.4884
H 21.6785 1.79974 20.1671
H 21.3673 1.805 18.6856
Ow 24.2891 25.499 23.9378
H 23.9939 0.317779 24.7292
H 24.9354 0.45888 23.5521
Ow 19.845 9.5683 8.30352
H 20.2373 10.3805 8.62394
H 19.2185 9.31995 8.98324
Ow 6.31308 10.8962 18.8672
H 5.80703 11.6346 19.2061
H 5.69028 10.1697 18.8422
Ow 5.90352 6.66298 11.7377
H 6.85124 6.65696 11.6035
H 5.58236 7.34761 11.1509
Ow 19.483 15.6321 9.57423
H 20.2247 15.8556 9.01188
H 18.8418 15.2403 8.98133
Ow 6.33605 19.3076 2.46515
H 6.38095 18.5903 3.09735
H 6.82602 20.0202 2.87549
Ow 10.8782 6.26559 21.5284
H 11.0854 7.19862 21.4763
H 10.6777 6.01363 20.627
Ow 10.4188 22.8892 10.1317
H 10.8533 22.0879 9.83953
H 10.1993 23.3517 9.32288
Ow 18.2507 23.031 14.1901
H 18.0653 22.9249 13.2571
H 17.4001 22.9289 14.617
Ow 12.9903 14.9377 13.3977
H 13.7758 15.4095 13.6743
H 12.3956 15.6215 13.0896
Ow 6.58852 23.6728 17.9258
H 5.84879 23.1152 18.1669
H 6.39042 24.5201 18.3247
Ow 17.3445 4.4297 15.1753
H 17.5101 3.58122 15.5862
H 17.6676 5.07036 15.8088
Ow 9.28139 0.623954 8.79281
H 10.2283 0.728471 8.69987
H 9.07131 25.4879 8.26091
Ow 21.1465 15.4628 16.5121
H 20.4278 15.3182 17.1276
H 21.2367 14.6301 16.0487
Ow 10.4559 7.93597 24.7733
H 10.3728 7.01445 24.5281
H 10.5645 8.39683 23.9415
Ow 2.27165 4.6341 22.3871
H 2.64045 4.24792 23.1815
H 3.03182 4.8236 21.8372
Ow 23.0241 20.8468 12.6461
H 22.7686 21.4041 11.911
H 22.1954 20.5385 13.0129
Ow 7.30239 23.7102 5.10658
H 7.94779 23.7727 5.8107
H 7.15268 22.7707 5.00097
Ow 15.6335 8.89701 23.7152
H 15.6277 9.42245 24.5153
H 14.8062 9.10886 23.2829
Ow 23.6977 5.89145 8.11814
H 22.9381 5.30925 8.10543
H 23.3964 6.6887 7.68244
Ow 7.30606 21.0711 4.43271
H 8.22848 20.8281 4.51238
H 6.86936 20.5888 5.13484
Ow 12.3364 20.6012 23.4749
H 13.0648 19.983 23.4161
H 11.5704 20.0963 23.202
Ow 14.7405 9.57587 11.0034
H 14.715 9.16264 10.1404
H 15.2554 10.3722 10.8731
Ow 3.41315 11.5269 14.8811
H 4.34454 11.5696 15.0977
H 3.25886 12.296 14.3326
Ow 16.9083 18.638 10.1663
H 16.3406 17.8819 10.3156
H 17.3123 18.8065 11.0175
Ow 0.632984 3.73008 17.0257
H 0.64638 3.29565 17.8785
H 0.649672 4.66461 17.2321
Ow 2.46678 0.703425 19.3874
H 2.4225 0.426675 20.3026
H 1.76215 1.34485 19.2963
Ow 3.21488 7.95879 4.35395
H 3.20416 8.28213 5.25482
H 3.9137 7.30476 4.34202
Ow 18.3831 21.1701 8.98832
H 17.7888 21.8764 8.7347
H 17.8209 20.5268 9.41987
Ow 18.7213 11.6101 1.22964
H 19.0061 12.0828 2.0117
H 19.009 12.1584 0.499694
Ow 13.6019 11.663 8.55565
H 13.4407 11.7521 9.49495
H 13.8082 10.7362 8.43445
Ow 4.07658 9.05657 19.1756
H 3.9439 8.87459 20.1059
H 3.8936 8.22423 18.7398
Ow 8.22294 25.3098 11.671
H 7.88198 0.55149 11.8644
H 8.4346 25.336 10.7378
Ow 0.354801 18.3153 23.1813
H 0.35882 17.8079 23.9929
H 25.119 18.1617 22.8066
Ow 0.819535 22.1455 4.05667
H 1.4839 21.6781 4.56296
H 1.1532 23.0403 3.99125
Ow 10.4402 14.3093 10.7548
H 9.80672 14.4033 10.0434
H 9.90472 14.2324 11.5444
Ow 18.2957 5.6098 19.5465
H 18.9827 5.42743 18.9054
H 18.7668 5.76642 20.3649
Ow 25.5448 22.2803 17.2691
H 24.9019 22.3026 16.5603
H 0.383288 23.1107 17.193
Ow 22.4906 17.6002 10.7328
H 21.8592 17.155 10.1677
H 22.056 18.4156 10.9826
Ow 24.562 12.93 5.87722
H 25.2632 13.5813 5.86056
H 24.9621 12.1374 5.51953
Ow 19.6936 15.2758 2.32543
H 19.6674 14.9825 1.41462
H 19.9341 14.4939 2.82244
Ow 9.88883 0.72765 16.8616
H 10.6513 0.238064 17.1701
H 9.6284 1.26344 17.6108
Ow 23.7927 22.5597 14.555
H 24.3515 23.2253 14.1537
H 23.612 21.9401 13.8481
Ow 16.7958 0.898274 18.8868
H 16.95 1.73301 19.3292
H 15.8427 0.825163 18.8376
Ow 4.28136 3.75138 7.97699
H 4.76513 3.18105 7.37955
H 3.92155 4.43764 7.41502
Ow 23.8692 22.8884 5.14413
H 24.7427 22.5825 4.89984
H 24.0288 23.5985 5.76579
Ow 7.1324 4.05319 3.72996
H 6.91511 4.30333 2.83194
H 6.31675 4.17277 4.21643
Ow 11.3367 21.2315 20.5259
H 11.761 21.6701 21.2633
H 10.6379 21.8295 20.2608
Ow 23.2295 16.3593 24.7644
H 22.4946 16.3363 25.3772
H 22.9635 16.989 24.0943
Ow 13.0596 14.616 8.99313
H 13.2155 14.0513 8.2361
H 12.1179 14.5503 9.15163
Ow 9.73181 5.63437 1.5968
H 8.9524 6.14764 1.80964
H 9.39051 4.83373 1.19841
Ow 24.7898 21.2855 19.7705
H 25.1317 21.5093 18.9049
H 25.1979 21.9189 20.3608
Ow 5.70405 19.592 16.8443
H 6.57723 19.8194 16.5248
H 5.86475 19.0381 17.6083
Ow 11.169 13.5148 3.34588
H 10.818 13.9306 2.55837
H 12.0477 13.2295 3.09534
Ow 20.9135 20.0782 9.81315
H 21.3214 20.8814 10.1367
H 20.0333 20.3457 9.54861
Ow 14.4004 0.675277 2.53864
H 13.9745 0.517568 1.696
H 13.6899 0.630792 3.17859
Ow 5.9715 23.6224 12.2307
H 6.67951 24.1729 11.8962
H 6.08817 22.7838 11.7842
Ow 10.5502 12.4341 16.7272
H 11.2508 11.7922 16.8427
H 9.83046 12.1031 17.2645
Ow 9.24661 17.8136 18.4837
H 9.72708 16.9934 18.3709
H 8.96423 17.8025 19.3982
Ow 25.6699 14.5848 17.0421
H 25.0724 15.3126 16.8705
H 25.6725 14.0797 16.229
Ow 17.7173 2.13511 16.3603
H 17.5338 1.64366 17.1609
H 17.5805 1.50342 15.6543
Ow 20.9731 5.25278 6.97284
H 20.9323 6.00209 7.56706
H 20.7846 4.49592 7.52769
Ow 6.84798 10.6541 5.32435
H 6.05897 10.5184 4.79968
H 6.5402 11.1118 6.10663
Ow 23.7466 23.7682 2.04123
H 22.8284 23.7406 2.31016
H 24.2383 23.7245 2.86133
Ow 17.0345 10.405 16.0112
H 17.213 11.0677 16.6785
H 16.4931 9.7543 16.458
Ow 11.3374 17.0033 12.0958
H 10.6639 16.5523 11.5868
H 11.1339 17.9329 11.9928
Ow 18.2342 6.50863 16.7608
H 17.6515 6.92491 17.3959
H 18.4345 7.19994 16.1298
Ow 1.65871 25.3815 12.8934
H 2.46914 25.1616 13.3528
H 1.94745 25.7177 12.045
Ow 6.20987 25.125 1.44617
H 6.12388 24.3435 1.99205
H 5.32817 25.4966 1.41845
Ow 10.4917 7.15856 8.21223
H 10.9503 6.33808 8.39327
H 10.6717 7.70752 8.97544
Ow 20.8765 23.1745 21.4957
H 21.6994 23.5588 21.798
H 21.0709 22.853 20.6154
Ow 8.77583 22.2114 19.3022
H 8.10936 21.5958 19.6073
H 8.2982 22.825 18.744
Ow 12.426 8.79494 12.0391
H 13.3083 9.04492 11.7646
H 12.5467 8.39656 12.9011
Ow 24.8133 24.9875 13.9424
H 25.702 24.9167 13.594
H 24.9324 25.2796 14.8461
Ow 19.3362 18.8959 5.10978
H 18.7701 19.6658 5.05438
H 18.9399 18.3553 5.79302
Ow 8.91014 18.8532 10.6796
H 8.22762 19.5239 10.7035
H 8.43158 18.0247 10.6516
Ow 23.3052 6.63444 25.3111
H 22.5662 7.04382 24.8611
H 23.337 5.74461 24.9597
Ow 6.38248 12.1837 7.68333
H 5.65649 12.642 8.1066
H 7.117 12.795 7.73863
Ow 0.366667 17.0089 25.6353
H 0.777104 16.2791 0.467598
H 25.0845 16.7434 25.531
Ow 3.05709 3.55335 16.1215
H 3.03725 3.16787 15.2455
H 2.13853 3.59071 16.3881
Ow 17.7499 14.9046 21.1416
H 17.7345 14.4738 21.9962
H 18.5404 14.5696 20.7182
Ow 21.4706 20.8232 23.0166
H 20.619 20.8072 23.4534
H 21.4651 21.6351 22.5097
Ow 18.675 0.250748 21.3195
H 18.4662 25.6037 20.4279
H 17.8729 25.7194 21.8158
Ow 21.1228 22.277 0.289928
H 21.1806 22.9171 0.99924
H 20.242 21.9105 0.368652
Ow 6.73304 8.73507 0.283264
H 6.82484 8.39447 1.17309
H 6.07965 9.4305 0.358702
Ow 2.29856 17.9545 13.4157
H 2.57533 18.8659 13.3208
H 3.10291 17.4469 13.3078
Ow 4.63325 14.7981 7.66445
H 5.08112 15.049 8.47234
H 3.96848 14.1687 7.94411
Ow 24.5065 18.5262 20.4279
H 23.6781 18.1945 20.7742
H 24.2808 19.3673 20.0305
Ow 10.4617 0.957505 12.9502
H 9.61327 0.620037 12.6628
H 11.0771 0.662326 12.2791
Ow 3.04057 13.0826 22.3041
H 3.61569 12.7184 21.6311
H 2.35459 13.5358 21.8139
Ow 11.975 11.9538 22.6922
H 11.7457 12.3824 21.8676
H 12.8161 12.3393 22.9373
Ow 16.3461 25.5004 22.5155
H 15.6081 25.6217 21.9182
H 16.2667 0.586501 23.144
Ow 8.62783 6.54695 11.37
H 9.1745 7.31041 11.1843
H 9.24617 5.8192 11.4353
Ow 18.664 4.41051 8.70887
H 18.2836 3.85436 8.02902
H 19.2381 3.8259 9.20376
Ow 4.33269 5.21491 20.8788
H 4.61266 4.97314 19.9959
H 4.37974 6.17086 20.8921
Ow 5.31702 0.799158 9.77164
H 5.75383 1.16458 10.541
H 5.59569 25.5152 9.74967
Ow 20.3385 11.9316 9.73352
H 20.8533 12.7141 9.93075
H 19.8272 11.7744 10.5273
Ow 18.2494 17.7 19.1114
H 18.4894 16.8523 18.7371
H 18.3302 18.3155 18.3829
Ow 10.4639 15.3846 17.0301
H 10.1519 14.4858 16.9254
H 11.3879 15.2923 17.2624
Ow 13.8611 16.7559 2.61827
H 13.8032 16.4007 3.50524
H 12.9707 17.0433 2.41619
Ow 1.47703 18.4014 2.09784
H 1.15539 17.8255 1.40422
H 1.96784 19.0816 1.63669
Ow 15.6073 10.8269 25.6069
H 15.0858 10.7348 0.772643
H 15.0171 11.2469 24.9812
Ow 9.51337 3.29218 5.22264
H 8.79975 3.66121 4.70225
H 9.22839 3.39845 6.13023
Ow 11.7114 1.68924 9.14999
H 12.2675 1.5786 8.37878
H 12.0041 1.00897 9.75647
Ow 8.572 15.0187 2.26733
H 8.90905 15.0608 1.37242
H 8.75836 15.8827 2.63478
Ow 21.6571 14.1308 10.4468
H 22.2272 14.5826 11.0689
H 20.9709 14.7668 10.2445
Ow 10.8625 25.2331 20.7968
H 10.0852 24.7123 20.9989
H 10.5204 0.389278 20.3741
Ow 2.82168 7.31494 8.38712
H 2.39811 7.94718 7.80652
H 3.62688 7.07157 7.93035
Ow 8.38099 13.4174 5.06796
H 9.06483 13.698 4.4598
H 8.57507 13.8857 5.87994
Ow 7.82313 1.92447 0.172933
H 8.51542 2.30027 25.2607
H 7.27564 2.67152 0.414608
Ow 22.4453 13.0337 1.89995
H 21.9448 12.7123 1.14995
H 21.8453 12.9525 2.64134
Ow 13.3698 5.22406 22.6036
H 13.831 4.84601 21.8549
H 12.6899 5.77378 22.2141
Ow 12.4697 25.7423 4.89169
H 12.8208 0.775493 5.48422
H 11.5254 0.267526 4.88771
Ow 14.9359 4.34183 0.604673
H 15.7029 4.77115 0.983646
H 15.2972 3.70985 25.6147
Ow 1.86831 24.7006 17.1369
H 0.969365 25.0263 17.0915
H 2.22127 25.0816 17.941
Ow 7.20275 21.9638 0.460962
H 7.77258 22.4703 25.5137
H 7.33407 21.0547 0.191662
Ow 4.35733 24.2862 7.43718
H 3.42147 24.4535 7.54846
H 4.42719 23.8782 6.57411
Ow 21.8319 3.1781 9.10034
H 21.2939 3.29049 9.884
H 22.7236 3.07837 9.43372
Ow 14.3754 19.2282 17.682
H 15.3135 19.2945 17.5037
H 14.0197 18.7616 16.9258
Ow 3.62912 6.82871 17.5513
H 4.11989 6.04081 17.785
H 3.97638 7.08301 16.6963
Ow 0.499233 6.12769 9.55114
H 25.2679 6.3011 9.17487
H 1.11551 6.49627 8.91823
Ow 4.22775 1.18127 23.574
H 3.5819 0.627949 23.1348
H 3.71015 1.74143 24.1524
Ow 21.4756 5.04041 18.9363
H 21.2451 4.12208 19.077
H 22.0473 5.02949 18.1687
Ow 4.76617 21.594 18.7139
H 4.88217 21.0485 17.9359
H 5.42817 21.2785 19.3291
Ow 1.84355 18.5247 10.3053
H 1.81896 17.6718 10.7389
H 0.925828 18.7293 10.1259
Ow 3.06093 2.61732 13.5117
H 2.87443 3.10881 12.7118
H 3.71886 1.97331 13.2498
Ow 9.6906 11.4208 24.542
H 10.4345 11.5939 23.965
H 8.92191 11.6341 24.013
Ow 8.35173 2.91212 7.75088
H 7.44704 2.6812 7.54006
H 8.70915 2.12734 8.16634
Ow 2.67908 20.213 4.96281
H 2.31957 19.3286 4.89352
H 3.52927 20.094 5.38619
Ow 22.6415 4.77489 16.012
H 21.7794 4.51508 15.6871
H 23.1958 4.00949 15.8602
Ow 20.5565 15.735 22.5829
H 20.6154 15.3212 23.444
H 20.6497 15.0121 21.9624
Ow 11.6494 4.71062 8.26322
H 11.9579 4.61948 7.36169
H 11.794 3.84915 8.65461
Ow 18.0312 22.9346 20.9123
H 17.9769 22.1798 20.3261
H 18.9657 23.1369 20.9571
Ow 10.522 18.5311 22.2463
H 10.9317 19.0504 21.5544
H 10.7895 17.6309 22.061
Ow 5.31025 19.7894 6.21188
H 5.15427 18.8504 6.3122
H 5.50879 20.0956 7.09678
Ow 8.13876 20.3341 16.0271
H 8.29271 20.0247 15.1345
H 8.0064 21.2776 15.9346
Ow 24.1395 9.41044 22.441
H 23.4043 9.74841 22.9522
H 23.8841 9.5535 21.5297
Ow 8.81039 9.7322 15.3352
H 8.4311 10.4986 14.905
H 8.90298 9.99271 16.2516
Ow 18.0212 15.7309 15.6145
H 18.1953 16.6298 15.3355
H 18.6892 15.5514 16.2762
Ow 20.0764 11.5088 18.908
H 20.3922 12.306 19.3334
H 19.1417 11.6636 18.7718
Ow 8.6006 3.11983 13.7179
H 8.85709 2.22901 13.9564
H 9.05918 3.28943 12.895
Ow 5.01573 5.82141 3.90235
H 5.80879 6.06481 3.4248
H 4.57882 5.1868 3.33436
Ow 13.3301 18.1908 15.3334
H 12.3912 18.0084 15.2944
H 13.4068 19.1099 15.0771
Ow 9.47704 17.1373 3.61047
H 8.61534 17.1923 4.0236
H 10.0016 16.6157 4.21798
Ow 8.72896 23.4638 24.2986
H 9.65166 23.27 24.4637
H 8.68973 23.6657 23.3637
Ow 6.23314 11.5563 14.6675
H 6.6685 12.0133 13.9478
H 5.92691 12.2553 15.2453
Ow 24.3479 3.99494 21.4167
H 23.4508 4.32731 21.4471
H 24.8768 4.75393 21.1709
Ow 5.16671 15.279 10.3543
H 5.96147 15.8105 10.4008
H 5.44731 14.4038 10.6214
Ow 0.172076 2.33281 12.5259
H 0.820473 1.68578 12.8037
H 25.6502 2.86825 13.3044
Ow 10.0968 10.0658 6.36406
H 9.85534 9.21848 5.9898
H 11.0534 10.0772 6.33487
Ow 24.453 2.56853 10.1298
H 24.3927 1.70421 9.72298
H 24.7515 2.39335 11.0223
Ow 19.9135 8.72363 19.708
H 20.224 8.21856 18.9565
H 20.3699 9.56217 19.6387
Ow 21.3703 3.52405 23.998
H 22.2617 3.72008 24.2863
H 20.825 4.16869 24.4489
Ow 15.824 18.8302 20.4041
H 16.2244 19.2472 19.6412
H 16.0233 19.4193 21.1318
Ow 12.5271 8.26373 19.7772
H 12.1352 7.43176 19.5118
H 13.4563 8.16895 19.5676
Ow 13.7669 5.98893 9.72799
H 13.4806 5.9595 10.6409
H 13.1749 5.39114 9.27146
Ow 7.07594 10.7071 11.7996
H 7.75591 11.234 12.2194
H 6.85489 10.0393 12.4487
Ow 24.5333 18.8972 4.52166
H 23.9534 18.5321 3.85332
H 25.0417 18.1484 4.83318
Ow 20.5182 1.75506 1.15128
H 20.0984 2.17613 1.90139
H 19.7968 1.54922 0.556801
Ow 19.4827 5.24814 3.07783
H 19.3955 5.56639 3.97636
H 18.7254 5.6126 2.61958
Ow 14.9466 3.81227 6.02185
H 14.846 3.88026 5.07238
H 15.8736 3.6119 6.15122
Ow 8.35415 21.1483 7.45014
H 8.76503 22.0111 7.50368
H 7.83281 21.0807 8.25006
Ow 6.33276 4.53611 9.99744
H 5.97875 5.06747 10.7106
H 5.6063 4.44787 9.38043
Ow 18.3298 24.3464 17.7088
H 17.9132 23.4894 17.7996
H 17.6959 24.9616 18.0775
Ow 12.3474 8.48213 6.48362
H 11.5794 8.08116 6.89046
H 12.9036 7.74223 6.23973
Ow 11.342 10.4264 2.2229
H 11.9743 11.1451 2.22749
H 11.873 9.63895 2.34203
Ow 12.0968 25.2352 10.835
H 12.9929 24.9379 10.9921
H 11.5704 24.4362 10.8632
Ow 18.3802 1.40873 25.0943
H 17.7633 1.35152 0.192345
H 18.0197 2.09122 24.5282
Ow 15.8452 14.9433 2.31231
H 15.1327 15.565 2.16366
H 16.6032 15.4911 2.51603
Ow 3.68758 0.381538 2.2292
H 4.00316 1.28424 2.18712
H 2.85232 0.397284 1.76195
Ow 5.77787 1.68562 7.05577
H 5.84218 1.05501 6.33853
H 5.52498 1.16051 7.81507
Ow 16.7262 0.214159 14.4744
H 16.5072 25.0607 14.9765
H 17.2979 25.531 13.7742
Ow 1.04318 7.14099 0.173757
H 0.859963 7.29025 24.8777
H 1.84717 6.62157 0.179021
Ow 15.9586 8.23519 17.2864
H 15.5744 8.28256 18.1618
H 15.4673 7.54188 16.8458
Ow 20.8381 19.8797 13.6614
H 20.9457 18.9365 13.7837
H 20.2655 20.151 14.3789
Ow 21.9549 13.9827 5.71153
H 22.8717 13.7132 5.65545
H 21.4999 13.4172 5.08751
Ow 5.49218 13.6074 16.4359
H 6.16463 14.2811 16.335
H 5.47278 13.4265 17.3756
Ow 17.8235 24.3669 1.44378
H 17.5781 23.9031 2.24435
H 17.592 25.2798 1.61469
Ow 14.474 2.1503 14.3241
H 14.374 2.90187 14.9084
H 15.3269 1.7807 14.5524
Ow 4.53287 16.4928 20.1942
H 3.92417 16.6573 20.9143
H 4.33832 15.5981 19.9151
Ow 13.2026 21.9302 11.4362
H 13.5169 21.205 10.8964
H 13.769 22.6659 11.2032
Ow 15.6313 9.27452 8.13975
H 15.7801 8.61487 7.46229
H 16.4417 9.28235 8.64916
Ow 2.59709 5.35863 11.768
H 1.9947 5.95015 11.3169
H 2.55547 5.62767 12.6857
Ow 4.82888 23.1688 24.9231
H 4.84453 22.8544 24.0192
H 5.66596 22.885 25.2905
Ow 9.50069 0.732539 5.04718
H 9.7978 0.380161 5.8861
H 9.52631 1.68233 5.16323
Ow 8.15454 7.95662 21.1046
H 7.56471 8.56355 21.5518
H 8.00092 7.11399 21.532
Ow 0.846378 3.96898 2.58092
H 1.79663 3.86766 2.52623
H 0.562377 3.26073 3.1588
Ow 1.4852 3.30141 19.8263
H 2.31779 3.44209 20.2771
H 0.936957 4.03686 20.0997
Ow 11.7468 18.2976 2.245
H 11.6346 19.1626 1.8507
H 10.9172 18.128 2.69146
Ow 15.174 3.25648 3.12939
H 15.1355 3.49418 2.20297
H 14.9835 2.31856 3.14463
Ow 22.0913 23.1912 16.7149
H 21.2735 23.5752 16.3985
H 22.5665 22.95 15.9197
Ow 20.2199 5.19848 21.5592
H 20.8588 5.26223 22.2692
H 20.7391 5.29013 20.7603
Ow 22.4976 6.24448 22.521
H 22.35 6.92855 21.8679
H 23.4055 6.36851 22.7975
Ow 11.9228 16.8552 25.5634
H 12.388 16.0278 25.6868
H 11.9028 17.2516 0.802864
Ow 25.3861 8.71623 2.87057
H 24.5967 8.95808 2.38624
H 25.5749 9.47854 3.41781
Ow 6.41614 23.9268 9.12056
H 7.12657 23.9134 8.4792
H 5.62083 24.0183 8.59585
Ow 1.19666 7.89096 12.1123
H 0.833228 8.11136 11.2546
H 1.73583 8.64659 12.3458
Ow 3.18693 9.80892 12.5645
H 3.82919 10.004 13.2469
H 3.67939 9.32236 11.9035
Ow 14.8065 16.8137 9.96377
H 15.0679 16.0397 10.4626
H 14.3142 16.4653 9.2205
Ow 17.9199 14.9307 7.32643
H 18.5499 14.215 7.24208
H 17.0654 14.4993 7.32701
Ow 23.5069 23.8299 21.9634
H 24.1466 23.8003 21.2519
H 23.7307 24.6205 22.4545
Ow 12.1469 17.9088 9.0307
H 12.1761 17.3176 9.78295
H 11.4732 17.5384 8.46047
Ow 17.971 17.7144 7.60481
H 17.7573 18.0428 8.47812
H 17.7943 16.7748 7.65188
Ow 7.73645 16.5017 10.4285
H 7.70699 16.0892 11.2917
H 7.97506 15.7925 9.83159
Ow 11.4 16.3005 20.7111
H 12.1343 15.9032 21.1792
H 10.7514 15.5999 20.6429
Ow 12.7663 1.24195 23.9133
H 12.8077 0.736433 23.1016
H 13.6425 1.61534 24.0085
Ow 3.17085 13.3588 12.8533
H 3.85884 12.9386 12.3371
H 2.73993 13.9537 12.2396
Ow 23.7983 8.652 6.48827
H 23.6179 8.91043 7.3921
H 24.5869 9.14038 6.25187
Ow 5.86976 3.03424 22.2699
H 5.37375 3.75068 21.8738
H 5.2024 2.41486 22.5652
Ow 9.89841 8.87511 10.6011
H 9.71944 9.66366 10.0888
H 10.7747 9.01567 10.9598
Ow 15.8115 25.1825 7.50321
H 16.0239 24.346 7.91711
H 16.3909 25.2279 6.74262
Ow 0.710185 11.2495 20.8754
H 0.39989 10.3918 20.5852
H 1.64257 11.2533 20.6589
Ow 17.3933 1.46249 8.82736
H 17.5763 1.91314 8.00294
H 16.6802 0.859236 8.61798
Ow 24.8353 6.74342 15.1603
H 25.4578 6.68415 15.885
H 24.1509 6.11108 15.3794
Ow 13.8466 15.7019 5.14437
H 14.6716 16.1763 5.2474
H 14.1039 14.8432 4.80855
Ow 8.68978 10.3817 17.8687
H 9.30507 10.4924 18.5935
H 7.83381 10.581 18.2479
Ow 10.1932 4.23164 11.7171
H 10.9663 4.50087 12.2132
H 10.2839 3.28297 11.6275
Ow 20.7167 0.181118 10.707
H 19.913 0.56032 11.0626
H 21.4159 0.741622 11.0436
Ow 5.1395 18.1778 25.6604
H 5.92073 18.5233 0.460692
H 5.28194 18.3535 24.7303
Ow 19.869 5.3511 25.2707
H 19.5011 5.13097 0.49494
H 20.2018 6.24254 25.3746
Ow 22.1005 10.6601 23.4595
H 22.0513 11.5698 23.7532
H 21.3113 10.2505 23.8138
Ow 5.74054 0.335412 4.62171
H 6.19997 25.174 4.89802
H 4.85752 25.669 4.40334
Ow 22.3974 20.7427 2.45957
H 22.6604 19.8504 2.23393
H 22.3131 21.1885 1.6167
Ow 9.3047 7.75908 4.70663
H 10.1053 7.53455 4.23246
H 8.62502 7.78121 4.03299
Ow 11.5669 6.65367 3.51151
H 11.0077 6.20337 2.87847
H 12.2919 6.99733 2.98949
Ow 0.150316 1.8006 22.6822
H 0.434227 2.54113 22.1462
H 0.813467 1.12701 22.5314
Ow 24.6904 12.9176 10.68
H 24.6179 13.8391 10.4311
H 24.0703 12.8145 11.4018
Ow 11.6988 4.16374 15.0353
H 12.0879 4.0848 15.9063
H 10.7642 4.28861 15.2004
Ow 21.9237 5.26552 12.657
H 22.8418 5.41486 12.4312
H 21.6634 4.51662 12.1207
Ow 3.03462 14.8143 3.30782
H 2.51164 14.6181 4.08515
H 2.43746 14.6692 2.57393
Ow 1.84737 22.8876 11.8643
H 2.00158 23.663 12.404
H 1.09963 23.1225 11.3148
Ow 12.4812 25.6962 17.8391
H 12.9023 0.74628 18.3628
H 12.9638 24.8974 18.0521
Ow 25.3695 2.21875 4.58295
H 25.6354 2.63068 5.40507
H 0.177368 1.36837 4.58754
Ow 0.328062 8.48568 19.3346
H 25.0273 8.70212 19.3475
H 0.706617 9.09274 18.6987
Ow 12.5498 19.4506 4.98748
H 11.8413 19.3168 5.6171
H 12.2228 19.0679 4.17334
Ow 6.5713 3.96839 16.1184
H 6.42979 3.12841 15.6818
H 6.21558 4.61736 15.5113
Ow 2.52557 3.10273 24.798
H 2.75175 3.89378 25.2872
H 1.65377 2.86592 25.1144
Ow 9.9365 14.1592 20.8162
H 10.063 13.4465 20.1899
H 8.99796 14.1499 21.0041
Ow 15.2344 12.0071 14.4053
H 14.8923 12.7393 14.9182
H 15.8494 11.5688 14.9934
Ow 10.2352 25.4157 1.4399
H 9.55988 25.5479 0.774602
H 9.81513 24.8676 2.10274
Ow 0.810153 21.7899 8.19104
H 0.416045 22.2566 8.92802
H 1.71118 21.6224 8.46728
Ow 20.414 7.87867 12.7359
H 21.2955 8.25161 12.7453
H 20.5536 6.93453 12.6628
Ow 19.8369 24.967 15.5783
H 19.5116 24.2922 14.9824
H 19.3521 24.8235 16.391
Ow 10.7499 21.8107 3.7753
H 11.1171 21.7469 4.65694
H 10.2956 22.6531 3.76489
Ow 24.8021 25.0491 19.7528
H 25.7255 24.798 19.778
H 24.5922 25.0984 18.8202
Ow 25.0616 25.7474 8.90685
H 25.6452 25.5542 8.17315
H 24.9156 24.8998 9.32701
Ow 25.4639 21.1224 23.5507