LAMMPS (16 Mar 2018)
Reading data file ...
  orthogonal box = (0 0 0) to (25.8482 25.8482 25.8482)
  2 by 2 by 3 MPI processor grid
  reading atoms ...
  1572 atoms
  scanning bonds ...
  2 = max bonds/atom
  scanning angles ...
  1 = max angles/atom
  reading bonds ...
  1000 bonds
  reading angles ...
  500 angles
Finding 1-2 1-3 1-4 neighbors ...
  special bond factors lj:   0          0          0         
  special bond factors coul: 0          0          0         
  2 = max # of 1-2 neighbors
  1 = max # of 1-3 neighbors
  1 = max # of 1-4 neighbors
  2 = max # of special neighbors
Setting atom values ...
  500 settings made for charge
Setting atom values ...
  1000 settings made for charge
Setting atom values ...
  36 settings made for charge
Setting atom values ...
  36 settings made for charge
500 atoms in group wat
36 atoms in group K
36 atoms in group Cl
Finding SHAKE clusters ...
  0 = # of size 2 clusters
  0 = # of size 3 clusters
  0 = # of size 4 clusters
  500 = # of frozen angles
PPPM initialization ...
  extracting TIP4P info from pair style
  using 12-bit tables for long-range coulomb (../kspace.cpp:321)
  G vector (1/distance) = 0.309797
  grid = 24 24 24
  stencil order = 5
  estimated absolute RMS force accuracy = 0.00375155
  estimated relative force accuracy = 1.12977e-05
  using double precision FFTs
  3d grid and FFT values/proc = 5415 1152
Neighbor list info ...
  update every 1 steps, delay 0 steps, check yes
  max neighbors/atom: 2000, page size: 100000
  master list distance cutoff = 12.3092
  ghost atom cutoff = 12.3092
  binsize = 6.1546, bins = 5 5 5
  1 neighbor lists, perpetual/occasional/extra = 1 0 0
  (1) pair lj/cut/tip4p/long, perpetual
      attributes: half, newton on
      pair build: half/bin/newton
      stencil: half/bin/3d/newton
      bin: standard
Setting up Verlet run ...
  Unit style    : real
  Current step  : 0
  Time step     : 0.001
Per MPI rank memory allocation (min/avg/max) = 8.286 | 8.289 | 8.293 Mbytes
Step Density Temp Press TotEng 
       0    1.1241608    437.34234    521450.98    2311.9202 
   10000    1.0218562    1128.9863    14553.846    376.91592 
Loop time of 39.7626 on 12 procs for 10000 steps with 1572 atoms

Performance: 0.022 ns/day, 1104.517 hours/ns, 251.493 timesteps/s
93.0% CPU use with 12 MPI tasks x no OpenMP threads

MPI task timing breakdown:
Section |  min time  |  avg time  |  max time  |%varavg| %total
---------------------------------------------------------------
Pair    | 21.647     | 23.409     | 26.389     |  28.8 | 58.87
Bond    | 0.0053516  | 0.0064012  | 0.0078094  |   0.8 |  0.02
Kspace  | 7.1509     | 10.114     | 11.899     |  44.0 | 25.44
Neigh   | 0.001816   | 0.0018264  | 0.0018367  |   0.0 |  0.00
Comm    | 1.237      | 1.2723     | 1.3266     |   2.1 |  3.20
Output  | 5.962e-05  | 8.1011e-05 | 0.00030519 |   0.0 |  0.00
Modify  | 4.4996     | 4.7423     | 4.7973     |   3.5 | 11.93
Other   |            | 0.2164     |            |       |  0.54

Nlocal:    131 ave 140 max 124 min
Histogram: 1 3 1 1 1 1 1 1 1 1
Nghost:    4116.75 ave 4171 max 4027 min
Histogram: 2 2 0 0 0 0 0 1 5 2
Neighs:    43926.4 ave 48408 max 40542 min
Histogram: 2 1 1 2 2 1 0 1 1 1

Total # of neighbors = 527117
Ave neighs/atom = 335.316
Ave special neighs/atom = 1.9084
Neighbor list builds = 1
Dangerous builds = 0
PPPM initialization ...
  extracting TIP4P info from pair style
  using 12-bit tables for long-range coulomb (../kspace.cpp:321)
  G vector (1/distance) = 0.310445
  grid = 25 25 25
  stencil order = 5
  estimated absolute RMS force accuracy = 0.00343538
  estimated relative force accuracy = 1.03455e-05
  using double precision FFTs
  3d grid and FFT values/proc = 6400 1875
Setting up Verlet run ...
  Unit style    : real
  Current step  : 10000
  Time step     : 0.01
Per MPI rank memory allocation (min/avg/max) = 8.324 | 8.349 | 8.395 Mbytes
Step Density Temp Press TotEng 
   10000    1.0218562    1128.9863    1441102.4    376.90403 
   20000    1.1575871    297.95029   -1542.5176   -7238.2533 
Loop time of 41.9743 on 12 procs for 10000 steps with 1572 atoms

Performance: 0.206 ns/day, 116.595 hours/ns, 238.241 timesteps/s
90.7% CPU use with 12 MPI tasks x no OpenMP threads

MPI task timing breakdown:
Section |  min time  |  avg time  |  max time  |%varavg| %total
---------------------------------------------------------------
Pair    | 20.986     | 22.617     | 25.557     |  26.2 | 53.88
Bond    | 0.0056615  | 0.0066352  | 0.0086028  |   0.9 |  0.02
Kspace  | 8.1667     | 11.099     | 12.735     |  37.4 | 26.44
Neigh   | 0.016142   | 0.016191   | 0.016233   |   0.0 |  0.04
Comm    | 1.2314     | 1.2768     | 1.3306     |   2.2 |  3.04
Output  | 5.9232e-05 | 7.4549e-05 | 0.00023738 |   0.0 |  0.00
Modify  | 4.683      | 5.1545     | 6.8064     |  22.4 | 12.28
Other   |            | 1.804      |            |       |  4.30

Nlocal:    131 ave 137 max 125 min
Histogram: 2 2 0 1 0 3 0 1 0 3
Nghost:    4246.83 ave 4317 max 4179 min
Histogram: 1 3 0 0 3 1 0 1 2 1
Neighs:    47168.3 ave 50709 max 42536 min
Histogram: 1 0 0 3 3 0 0 2 0 3

Total # of neighbors = 566020
Ave neighs/atom = 360.064
Ave special neighs/atom = 1.9084
Neighbor list builds = 9
Dangerous builds = 0
PPPM initialization ...
  extracting TIP4P info from pair style
  using 12-bit tables for long-range coulomb (../kspace.cpp:321)
  G vector (1/distance) = 0.310502
  grid = 24 24 24
  stencil order = 5
  estimated absolute RMS force accuracy = 0.00364393
  estimated relative force accuracy = 1.09736e-05
  using double precision FFTs
  3d grid and FFT values/proc = 5415 1152
Setting up Verlet run ...
  Unit style    : real
  Current step  : 20000
  Time step     : 0.1
Per MPI rank memory allocation (min/avg/max) = 8.286 | 8.29 | 8.293 Mbytes
Step Density Temp Press TotEng 
   20000    1.1575871    297.95029   -29176.173   -7238.2639 
   30000    1.1945968    308.44212    1265.1381   -8313.7748 
Loop time of 43.1525 on 12 procs for 10000 steps with 1572 atoms

Performance: 2.002 ns/day, 11.987 hours/ns, 231.736 timesteps/s
94.3% CPU use with 12 MPI tasks x no OpenMP threads

MPI task timing breakdown:
Section |  min time  |  avg time  |  max time  |%varavg| %total
---------------------------------------------------------------
Pair    | 24.174     | 26.547     | 28.963     |  31.7 | 61.52
Bond    | 0.0056787  | 0.0066998  | 0.0092604  |   1.1 |  0.02
Kspace  | 7.764      | 10.188     | 12.563     |  51.3 | 23.61
Neigh   | 0.084564   | 0.08488    | 0.085117   |   0.1 |  0.20
Comm    | 1.2858     | 1.309      | 1.3266     |   1.0 |  3.03
Output  | 6.1706e-05 | 7.762e-05  | 0.00024703 |   0.0 |  0.00
Modify  | 4.5564     | 4.794      | 4.849      |   3.4 | 11.11
Other   |            | 0.2225     |            |       |  0.52

Nlocal:    131 ave 138 max 119 min
Histogram: 1 0 0 1 2 1 2 1 2 2
Nghost:    4344.25 ave 4386 max 4305 min
Histogram: 1 1 1 2 1 3 1 0 0 2
Neighs:    49213.4 ave 53176 max 44672 min
Histogram: 2 0 3 0 1 0 0 2 2 2

Total # of neighbors = 590561
Ave neighs/atom = 375.675
Ave special neighs/atom = 1.9084
Neighbor list builds = 43
Dangerous builds = 0
PPPM initialization ...
  extracting TIP4P info from pair style
  using 12-bit tables for long-range coulomb (../kspace.cpp:321)
  G vector (1/distance) = 0.311257
  grid = 24 24 24
  stencil order = 5
  estimated absolute RMS force accuracy = 0.00353187
  estimated relative force accuracy = 1.06361e-05
  using double precision FFTs
  3d grid and FFT values/proc = 5415 1152
Setting up Verlet run ...
  Unit style    : real
  Current step  : 30000
  Time step     : 0.2
Per MPI rank memory allocation (min/avg/max) = 8.287 | 8.291 | 8.294 Mbytes
Step Density Temp Press TotEng 
   30000    1.1945968    308.44212   -4301.9215   -8313.7762 
   40000    1.1506532    300.87037    162.01428   -8416.2911 
Loop time of 42.5678 on 12 procs for 10000 steps with 1572 atoms

Performance: 4.059 ns/day, 5.912 hours/ns, 234.919 timesteps/s
94.9% CPU use with 12 MPI tasks x no OpenMP threads

MPI task timing breakdown:
Section |  min time  |  avg time  |  max time  |%varavg| %total
---------------------------------------------------------------
Pair    | 24.404     | 26.451     | 28.314     |  21.4 | 62.14
Bond    | 0.0058421  | 0.0067963  | 0.0087542  |   1.0 |  0.02
Kspace  | 7.7489     | 9.6239     | 11.681     |  35.5 | 22.61
Neigh   | 0.172      | 0.17257    | 0.17295    |   0.1 |  0.41
Comm    | 1.2996     | 1.3154     | 1.3349     |   0.8 |  3.09
Output  | 5.9754e-05 | 7.6529e-05 | 0.0002455  |   0.0 |  0.00
Modify  | 4.5343     | 4.7784     | 4.826      |   3.5 | 11.23
Other   |            | 0.2193     |            |       |  0.52

Nlocal:    131 ave 142 max 115 min
Histogram: 1 0 1 0 1 3 0 3 2 1
Nghost:    4231.5 ave 4289 max 4205 min
Histogram: 4 0 3 0 3 1 0 0 0 1
Neighs:    47805.9 ave 53978 max 41767 min
Histogram: 1 0 1 2 3 1 2 0 1 1

Total # of neighbors = 573671
Ave neighs/atom = 364.931
Ave special neighs/atom = 1.9084
Neighbor list builds = 88
Dangerous builds = 0
PPPM initialization ...
  extracting TIP4P info from pair style
  using 12-bit tables for long-range coulomb (../kspace.cpp:321)
  G vector (1/distance) = 0.310358
  grid = 24 24 24
  stencil order = 5
  estimated absolute RMS force accuracy = 0.00366574
  estimated relative force accuracy = 1.10393e-05
  using double precision FFTs
  3d grid and FFT values/proc = 5415 1152
Setting up Verlet run ...
  Unit style    : real
  Current step  : 40000
  Time step     : 0.5
Per MPI rank memory allocation (min/avg/max) = 8.287 | 8.291 | 8.294 Mbytes
Step Density Temp Press TotEng 
   40000    1.1506532    300.87037    3338.5628   -8416.2932 
   50000    1.1439424    291.60262   0.59439155   -8394.8937 
Loop time of 43.3062 on 12 procs for 10000 steps with 1572 atoms

Performance: 9.975 ns/day, 2.406 hours/ns, 230.914 timesteps/s
94.2% CPU use with 12 MPI tasks x no OpenMP threads

MPI task timing breakdown:
Section |  min time  |  avg time  |  max time  |%varavg| %total
---------------------------------------------------------------
Pair    | 22.056     | 26.294     | 28.97      |  33.2 | 60.72
Bond    | 0.0058392  | 0.0067474  | 0.0082918  |   0.8 |  0.02
Kspace  | 7.4932     | 10.185     | 14.435     |  53.5 | 23.52
Neigh   | 0.43883    | 0.43986    | 0.44069    |   0.1 |  1.02
Comm    | 1.3381     | 1.3586     | 1.378      |   0.9 |  3.14
Output  | 5.9754e-05 | 7.5587e-05 | 0.00023881 |   0.0 |  0.00
Modify  | 4.5564     | 4.802      | 4.8509     |   3.5 | 11.09
Other   |            | 0.2204     |            |       |  0.51

Nlocal:    131 ave 139 max 117 min
Histogram: 1 0 0 0 2 2 2 2 1 2
Nghost:    4205.42 ave 4233 max 4171 min
Histogram: 1 1 2 2 0 0 0 0 2 4
Neighs:    47400.9 ave 53172 max 39146 min
Histogram: 1 0 0 1 1 4 2 0 1 2

Total # of neighbors = 568811
Ave neighs/atom = 361.839
Ave special neighs/atom = 1.9084
Neighbor list builds = 222
Dangerous builds = 0
PPPM initialization ...
  extracting TIP4P info from pair style
  using 12-bit tables for long-range coulomb (../kspace.cpp:321)
  G vector (1/distance) = 0.310217
  grid = 24 24 24
  stencil order = 5
  estimated absolute RMS force accuracy = 0.00368709
  estimated relative force accuracy = 1.11036e-05
  using double precision FFTs
  3d grid and FFT values/proc = 5415 1152
Setting up Verlet run ...
  Unit style    : real
  Current step  : 0
  Time step     : 1
Per MPI rank memory allocation (min/avg/max) = 8.287 | 8.425 | 8.665 Mbytes
Step Density Temp Press TotEng 
       0    1.1439424    291.60262    810.58153   -8394.8938 
  100000    1.1445659    287.45765     510.5251   -8498.8451 
  200000    1.1673537     307.2517    141.23762   -8428.8024 
  300000    1.1583231    296.42527    592.95706   -8368.4841 
  400000    1.1689764    297.77418    639.43918   -8451.2165 
  500000    1.1359029     294.2386   -605.30574   -8379.0303 
  600000    1.1618832    312.59546   -898.33753   -8358.1494 
  700000    1.1497918      304.071   -544.13167   -8399.8784 
  800000    1.1626801    301.99686    1050.5736   -8418.9201 
  900000    1.1560021    295.67779    607.08066   -8395.4476 
 1000000    1.1416171    292.24618    -457.1369   -8385.3016 
 1100000    1.1484226    301.36582    -315.5917      -8362.2 
 1200000    1.1478222    291.26841   -465.02819   -8419.7893 
 1300000    1.1380018    297.48054   -435.83256   -8448.5624 
 1400000    1.1473339    294.08421   -326.30338   -8421.1439 
 1500000    1.1338915    291.94346   -294.03173   -8409.0535 
 1600000    1.1639964     296.9608    283.99568   -8442.0072 
 1700000    1.1736617    304.05284    482.41237   -8404.9096 
 1800000    1.1402107    311.14609   -248.57623   -8382.8325 
 1900000    1.1541288    299.20514    647.02844   -8375.6612 
 2000000    1.1648708    311.05635   -261.97735   -8363.0446 
 2100000    1.1433437    306.64496    480.16816   -8360.3711 
 2200000    1.1368824    292.51846   -293.08604   -8417.7108 
 2300000     1.175783    307.03052    331.33702    -8328.815 
 2400000    1.1591038    303.03377    108.58448   -8398.1731 
 2500000    1.1695031    302.66589    320.26044   -8379.7042 
 2600000     1.150741    288.36849   -350.84715   -8461.4164 
 2700000    1.1504255    300.69416   -257.20564   -8442.3146 
 2800000    1.1332573       285.28   -139.51908   -8381.7683 
 2900000    1.1666787    294.13937    668.92541   -8448.4752 
 3000000    1.1498615    289.48728   -349.66469   -8513.9864 
 3100000    1.1530453    302.24015   -328.43978   -8380.3107 
 3200000    1.1641127    300.88816    868.28123   -8372.2501 
 3300000    1.1434642    289.38804   -52.316966   -8513.5892 
 3400000    1.1777579     290.4218    627.24627    -8424.671 
 3500000    1.1581383    286.06076    1164.1378   -8440.5327 
 3600000     1.163715    293.51564   -21.612424   -8442.6122 
 3700000     1.144871    297.98799   -40.350661   -8385.9899 
 3800000    1.1565896    289.20157    848.31908   -8456.6426 
 3900000    1.1465881    290.30565   -337.95516   -8431.7984 
 4000000    1.1423026    296.70497    69.599461   -8407.3855 
 4100000    1.1303598    296.04981   -933.12896   -8416.8764 
 4200000    1.1523139    289.53114    209.83976   -8488.9775 
 4300000    1.1486836    295.71868   -64.687654   -8401.2464 
 4400000    1.1447811    306.17228   -455.94356   -8370.0044 
 4500000    1.1695954    302.44235    287.13365   -8323.4229 
 4600000    1.1684688    294.97551     402.6784   -8409.2898 
 4700000    1.1520734    293.13968   -399.29379   -8381.7876 
 4800000    1.1539246    298.28254    398.09503   -8397.4396 
 4900000    1.1485446    302.00433    960.09806   -8381.2485 
 5000000     1.153805    296.19148   -89.384912   -8416.7721 
Loop time of 22342.8 on 12 procs for 5000000 steps with 1572 atoms

Performance: 19.335 ns/day, 1.241 hours/ns, 223.786 timesteps/s
93.6% CPU use with 12 MPI tasks x no OpenMP threads

MPI task timing breakdown:
Section |  min time  |  avg time  |  max time  |%varavg| %total
---------------------------------------------------------------
Pair    | 12386      | 13316      | 14239      | 559.7 | 59.60
Bond    | 2.9315     | 3.4036     | 4.1414     |  18.7 |  0.02
Kspace  | 4471.6     | 5388.9     | 6322.7     | 880.5 | 24.12
Neigh   | 411.38     | 412.11     | 412.57     |   2.0 |  1.84
Comm    | 689.74     | 699.89     | 710.13     |  18.7 |  3.13
Output  | 0.0030628  | 0.0038483  | 0.012246   |   4.1 |  0.00
Modify  | 2289       | 2410.6     | 2434.9     |  76.8 | 10.79
Other   |            | 111.4      |            |       |  0.50

Nlocal:    131 ave 140 max 119 min
Histogram: 1 1 0 1 1 2 2 0 2 2
Nghost:    4229.17 ave 4265 max 4191 min
Histogram: 2 0 0 1 2 3 0 2 1 1
Neighs:    47731.7 ave 53043 max 40801 min
Histogram: 2 0 0 1 1 1 3 2 0 2

Total # of neighbors = 572780
Ave neighs/atom = 364.364
Ave special neighs/atom = 1.9084
Neighbor list builds = 203645
Dangerous builds = 0
PPPM initialization ...
  extracting TIP4P info from pair style
  using 12-bit tables for long-range coulomb (../kspace.cpp:321)
  G vector (1/distance) = 0.310423
  grid = 24 24 24
  stencil order = 5
  estimated absolute RMS force accuracy = 0.00365579
  estimated relative force accuracy = 1.10093e-05
  using double precision FFTs
  3d grid and FFT values/proc = 5415 1152
Setting up Verlet run ...
  Unit style    : real
  Current step  : 0
  Time step     : 1
Per MPI rank memory allocation (min/avg/max) = 8.658 | 8.663 | 8.666 Mbytes
Step Density Temp Press TotEng 
       0     1.153805    296.19148   -130.50119   -8416.7723 
  100000    1.1342323    291.06808    568.04215   -8389.6338 
  200000    1.1615167    301.50669    238.50115   -8417.0688 
  300000    1.1451395    302.26411   -135.46737   -8394.6903 
  400000    1.1490124    298.70197    541.85479   -8393.5158 
  500000    1.1495751    276.72711    -1069.263   -8503.3526 
  600000    1.1385678    295.96282   -319.33951    -8367.283 
  700000    1.1692199    301.58189   -840.56539   -8415.5039 
  800000    1.1611683    294.51451    661.78172   -8490.9587 
  900000    1.1466465    301.65541    124.66723    -8465.731 
 1000000    1.1493922    301.70669   -140.78009   -8401.9312 
 1100000    1.1571419    305.84699   -252.29447   -8378.1096 
 1200000    1.1372011    289.69222   -488.88782   -8382.1207 
 1300000    1.1429826    293.28165   -1076.3474   -8373.3196 
 1400000    1.1541385    311.87691   -19.900758   -8340.8619 
 1500000    1.1587824    289.56457    761.57571   -8484.8117 
 1600000    1.1564087    303.00493    823.53555   -8357.3115 
 1700000    1.1553294    294.07108   -54.505446   -8398.7471 
 1800000    1.1497852    293.68958   -1187.4236   -8405.7053 
 1900000    1.1442028    304.35013   -1035.6879   -8483.8685 
 2000000    1.1603623    297.41025   -590.08041   -8439.1837 
 2100000    1.1494872    305.46965   -31.113015   -8338.9139 
 2200000    1.1574167    284.90361   -180.70978   -8421.7438 
 2300000    1.1465118    313.26062   -561.49538    -8395.317 
 2400000    1.1348405    283.93653    283.23443   -8362.9597 
 2500000    1.1557591    301.22628   -147.45526   -8351.8107 
 2600000    1.1577724     296.8358   -394.70017   -8455.4414 
 2700000     1.134641    294.89166    -352.1641   -8362.5258 
 2800000     1.153007    296.26813   -10.831798    -8407.509 
 2900000    1.1581093    294.47018    -218.2257   -8439.8426 
 3000000     1.157394    293.14445    726.29173   -8369.0165 
 3100000     1.159077    302.26216   -270.27529   -8391.9151 
 3200000    1.1381958      285.344   -375.01256   -8453.4655 
 3300000    1.1547157    307.61241   -897.23233   -8427.2144 
 3400000    1.1661262    305.02644   -258.36311   -8400.4926 
 3500000    1.1527328    289.78656   -1204.7709   -8400.7986 
 3600000    1.1565451    293.54503   -192.65742   -8401.0359 
 3700000    1.1376684    286.13503   -437.39508   -8380.8414 
 3800000    1.1519093    300.15921   -36.357351   -8432.8062 
 3900000    1.1516859    310.94982    198.23779   -8346.4232 
 4000000    1.1609936    292.41316   -551.67947    -8412.359 
 4100000    1.1366472     295.7456   -446.25578   -8380.7794 
 4200000    1.1432834    296.52544   -731.43378   -8494.3984 
 4300000    1.1550937    306.03725   -9.2365994   -8426.7041 
 4400000    1.1460563    305.27105    -472.6943   -8384.2753 
 4500000    1.1501851    303.11402   -735.95526   -8389.3241 
 4600000    1.1510382    291.65441   -346.93715   -8421.5018 
 4700000    1.1488678    295.38128   -59.940105   -8369.3246 
 4800000    1.1529604    292.86615    913.05427   -8405.4134 
 4900000    1.1652053     292.1739   -353.40994    -8406.627 
 5000000    1.1243649    303.70013   -1023.9479   -8430.8178 
Loop time of 22549.4 on 12 procs for 5000000 steps with 1572 atoms

Performance: 19.158 ns/day, 1.253 hours/ns, 221.736 timesteps/s
93.5% CPU use with 12 MPI tasks x no OpenMP threads

MPI task timing breakdown:
Section |  min time  |  avg time  |  max time  |%varavg| %total
---------------------------------------------------------------
Pair    | 12521      | 13338      | 14304      | 531.7 | 59.15
Bond    | 3.1413     | 3.4831     | 4.4761     |  21.4 |  0.02
Kspace  | 4432.9     | 5394.4     | 6210.5     | 837.0 | 23.92
Neigh   | 411.7      | 412.35     | 412.87     |   1.9 |  1.83
Comm    | 692.99     | 702.01     | 711.99     |  18.1 |  3.11
Output  | 0.22675    | 0.22726    | 0.23236    |   0.3 |  0.00
Modify  | 2464.1     | 2586.7     | 2610.3     |  74.6 | 11.47
Other   |            | 111.9      |            |       |  0.50

Nlocal:    131 ave 150 max 115 min
Histogram: 1 0 3 1 3 0 2 1 0 1
Nghost:    4134.08 ave 4192 max 4081 min
Histogram: 2 0 1 1 4 0 1 1 1 1
Neighs:    46510.6 ave 56422 max 40409 min
Histogram: 2 1 4 0 1 1 2 0 0 1

Total # of neighbors = 558127
Ave neighs/atom = 355.043
Ave special neighs/atom = 1.9084
Neighbor list builds = 203632
Dangerous builds = 0
Changing box ...
  orthogonal box = (0.000781806 0.000781806 0.000781806) to (25.6322 25.8475 25.8475)
  orthogonal box = (0.000781806 0.000781806 0.000781806) to (25.6322 25.6322 25.8475)
  orthogonal box = (0.000781806 0.000781806 0.000781806) to (25.6322 25.6322 25.6322)
PPPM initialization ...
  extracting TIP4P info from pair style
  using 12-bit tables for long-range coulomb (../kspace.cpp:321)
  G vector (1/distance) = 0.310405
  grid = 24 24 24
  stencil order = 5
  estimated absolute RMS force accuracy = 0.00365854
  estimated relative force accuracy = 1.10176e-05
  using double precision FFTs
  3d grid and FFT values/proc = 5415 1152
Setting up Verlet run ...
  Unit style    : real
  Current step  : 5000000
  Time step     : 0.001
Per MPI rank memory allocation (min/avg/max) = 8.658 | 8.663 | 8.666 Mbytes
Step Density Temp Press TotEng 
 5000000    1.1529313    303.70013   -33577.965   -8191.3052 
 5010000    1.1529313    314.99937    3503.2874   -8366.3687 
Loop time of 31.0798 on 12 procs for 10000 steps with 1572 atoms

Performance: 0.028 ns/day, 863.328 hours/ns, 321.752 timesteps/s
91.5% CPU use with 12 MPI tasks x no OpenMP threads

MPI task timing breakdown:
Section |  min time  |  avg time  |  max time  |%varavg| %total
---------------------------------------------------------------
Pair    | 16.097     | 18.245     | 21.625     |  38.3 | 58.71
Bond    | 0.0035707  | 0.0041415  | 0.0047152  |   0.6 |  0.01
Kspace  | 7.0191     | 10.316     | 12.384     |  50.0 | 33.19
Neigh   | 0          | 0          | 0          |   0.0 |  0.00
Comm    | 1.219      | 1.2875     | 1.3585     |   3.5 |  4.14
Output  | 6.1646e-05 | 7.6668e-05 | 0.00022626 |   0.0 |  0.00
Modify  | 1.036      | 1.0574     | 1.0726     |   1.0 |  3.40
Other   |            | 0.169      |            |       |  0.54

Nlocal:    131 ave 147 max 114 min
Histogram: 1 1 0 3 0 2 3 0 1 1
Nghost:    4193.58 ave 4272 max 4127 min
Histogram: 1 1 1 2 2 2 1 0 1 1
Neighs:    47715.8 ave 57498 max 41750 min
Histogram: 2 1 4 0 1 0 3 0 0 1

Total # of neighbors = 572590
Ave neighs/atom = 364.243
Ave special neighs/atom = 1.9084
Neighbor list builds = 0
Dangerous builds = 0
PPPM initialization ...
  extracting TIP4P info from pair style
  using 12-bit tables for long-range coulomb (../kspace.cpp:321)
  G vector (1/distance) = 0.310405
  grid = 24 24 24
  stencil order = 5
  estimated absolute RMS force accuracy = 0.00365854
  estimated relative force accuracy = 1.10176e-05
  using double precision FFTs
  3d grid and FFT values/proc = 5415 1152
Setting up Verlet run ...
  Unit style    : real
  Current step  : 5010000
  Time step     : 0.01
Per MPI rank memory allocation (min/avg/max) = 8.658 | 8.663 | 8.666 Mbytes
Step Density Temp Press TotEng 
 5010000    1.1529313    314.99937    3503.2947   -8366.3687 
 5020000    1.1529313    296.51583    762.54635   -8491.1925 
Loop time of 31.1461 on 12 procs for 10000 steps with 1572 atoms

Performance: 0.277 ns/day, 86.517 hours/ns, 321.068 timesteps/s
91.7% CPU use with 12 MPI tasks x no OpenMP threads

MPI task timing breakdown:
Section |  min time  |  avg time  |  max time  |%varavg| %total
---------------------------------------------------------------
Pair    | 15.985     | 18.254     | 21.44      |  35.9 | 58.61
Bond    | 0.0036574  | 0.0042316  | 0.0050782  |   0.6 |  0.01
Kspace  | 7.2309     | 10.322     | 12.54      |  46.8 | 33.14
Neigh   | 0.0062607  | 0.0062704  | 0.006278   |   0.0 |  0.02
Comm    | 1.2409     | 1.3318     | 1.3813     |   3.8 |  4.28
Output  | 6.4567e-05 | 8.0169e-05 | 0.00023371 |   0.0 |  0.00
Modify  | 1.0513     | 1.0641     | 1.071      |   0.7 |  3.42
Other   |            | 0.1642     |            |       |  0.53

Nlocal:    131 ave 149 max 113 min
Histogram: 1 0 1 1 4 1 2 1 0 1
Nghost:    4217.42 ave 4278 max 4166 min
Histogram: 2 1 1 1 2 2 0 0 1 2
Neighs:    47710.6 ave 57563 max 41223 min
Histogram: 1 1 3 1 1 4 0 0 0 1

Total # of neighbors = 572527
Ave neighs/atom = 364.203
Ave special neighs/atom = 1.9084
Neighbor list builds = 3
Dangerous builds = 0
PPPM initialization ...
  extracting TIP4P info from pair style
  using 12-bit tables for long-range coulomb (../kspace.cpp:321)
  G vector (1/distance) = 0.310405
  grid = 24 24 24
  stencil order = 5
  estimated absolute RMS force accuracy = 0.00365854
  estimated relative force accuracy = 1.10176e-05
  using double precision FFTs
  3d grid and FFT values/proc = 5415 1152
Setting up Verlet run ...
  Unit style    : real
  Current step  : 5020000
  Time step     : 0.1
Per MPI rank memory allocation (min/avg/max) = 8.658 | 8.663 | 8.666 Mbytes
Step Density Temp Press TotEng 
 5020000    1.1529313    296.51583     762.1743   -8491.1925 
 5030000    1.1529313    295.38368   -13.727169   -8378.4812 
Loop time of 30.6395 on 12 procs for 10000 steps with 1572 atoms

Performance: 2.820 ns/day, 8.511 hours/ns, 326.376 timesteps/s
92.9% CPU use with 12 MPI tasks x no OpenMP threads

MPI task timing breakdown:
Section |  min time  |  avg time  |  max time  |%varavg| %total
---------------------------------------------------------------
Pair    | 16.708     | 18.344     | 20.479     |  30.7 | 59.87
Bond    | 0.0035266  | 0.0042241  | 0.0051406  |   0.7 |  0.01
Kspace  | 7.534      | 9.649      | 11.224     |  41.9 | 31.49
Neigh   | 0.080281   | 0.080433   | 0.080521   |   0.0 |  0.26
Comm    | 1.3184     | 1.3467     | 1.4031     |   1.9 |  4.40
Output  | 5.9485e-05 | 7.4246e-05 | 0.00021918 |   0.0 |  0.00
Modify  | 1.0426     | 1.0511     | 1.0568     |   0.5 |  3.43
Other   |            | 0.1645     |            |       |  0.54

Nlocal:    131 ave 145 max 120 min
Histogram: 1 2 0 2 2 2 1 1 0 1
Nghost:    4199.5 ave 4229 max 4163 min
Histogram: 1 0 1 2 0 3 1 2 1 1
Neighs:    47722.8 ave 55861 max 43373 min
Histogram: 4 2 0 1 0 2 1 1 0 1

Total # of neighbors = 572673
Ave neighs/atom = 364.296
Ave special neighs/atom = 1.9084
Neighbor list builds = 40
Dangerous builds = 0
PPPM initialization ...
  extracting TIP4P info from pair style
  using 12-bit tables for long-range coulomb (../kspace.cpp:321)
  G vector (1/distance) = 0.310405
  grid = 24 24 24
  stencil order = 5
  estimated absolute RMS force accuracy = 0.00365854
  estimated relative force accuracy = 1.10176e-05
  using double precision FFTs
  3d grid and FFT values/proc = 5415 1152
Setting up Verlet run ...
  Unit style    : real
  Current step  : 5030000
  Time step     : 0.2
Per MPI rank memory allocation (min/avg/max) = 8.658 | 8.663 | 8.666 Mbytes
Step Density Temp Press TotEng 
 5030000    1.1529313    295.38368   -13.208264   -8378.4812 
 5040000    1.1529313    302.06939   -479.97726   -8433.2063 
Loop time of 30.4483 on 12 procs for 10000 steps with 1572 atoms

Performance: 5.675 ns/day, 4.229 hours/ns, 328.426 timesteps/s
93.7% CPU use with 12 MPI tasks x no OpenMP threads

MPI task timing breakdown:
Section |  min time  |  avg time  |  max time  |%varavg| %total
---------------------------------------------------------------
Pair    | 17.231     | 18.535     | 20.668     |  21.3 | 60.87
Bond    | 0.0034792  | 0.0042908  | 0.0052754  |   0.8 |  0.01
Kspace  | 7.0825     | 9.2003     | 10.536     |  30.5 | 30.22
Neigh   | 0.15757    | 0.158      | 0.15822    |   0.1 |  0.52
Comm    | 1.2968     | 1.333      | 1.3621     |   1.7 |  4.38
Output  | 6.2078e-05 | 7.7943e-05 | 0.00023785 |   0.0 |  0.00
Modify  | 1.0436     | 1.0523     | 1.0631     |   0.6 |  3.46
Other   |            | 0.1658     |            |       |  0.54

Nlocal:    131 ave 142 max 119 min
Histogram: 1 1 1 1 3 0 2 1 0 2
Nghost:    4185.75 ave 4230 max 4119 min
Histogram: 1 0 1 0 2 1 4 0 0 3
Neighs:    47733.8 ave 52554 max 43980 min
Histogram: 1 1 2 2 2 1 1 1 0 1

Total # of neighbors = 572806
Ave neighs/atom = 364.38
Ave special neighs/atom = 1.9084
Neighbor list builds = 81
Dangerous builds = 0
PPPM initialization ...
  extracting TIP4P info from pair style
  using 12-bit tables for long-range coulomb (../kspace.cpp:321)
  G vector (1/distance) = 0.310405
  grid = 24 24 24
  stencil order = 5
  estimated absolute RMS force accuracy = 0.00365854
  estimated relative force accuracy = 1.10176e-05
  using double precision FFTs
  3d grid and FFT values/proc = 5415 1152
Setting up Verlet run ...
  Unit style    : real
  Current step  : 5040000
  Time step     : 0.5
Per MPI rank memory allocation (min/avg/max) = 8.658 | 8.663 | 8.666 Mbytes
Step Density Temp Press TotEng 
 5040000    1.1529313    302.06939    -479.7646   -8433.2063 
 5050000    1.1529313     300.2188   -272.67144   -8331.6604 
Loop time of 30.9133 on 12 procs for 10000 steps with 1572 atoms

Performance: 13.975 ns/day, 1.717 hours/ns, 323.485 timesteps/s
93.4% CPU use with 12 MPI tasks x no OpenMP threads

MPI task timing breakdown:
Section |  min time  |  avg time  |  max time  |%varavg| %total
---------------------------------------------------------------
Pair    | 16.831     | 18.599     | 20.732     |  23.5 | 60.17
Bond    | 0.0034995  | 0.004162   | 0.0052584  |   0.8 |  0.01
Kspace  | 7.1552     | 9.2878     | 11.031     |  33.0 | 30.04
Neigh   | 0.40205    | 0.4031     | 0.40375    |   0.1 |  1.30
Comm    | 1.3221     | 1.3717     | 1.4134     |   2.0 |  4.44
Output  | 6.0752e-05 | 7.7481e-05 | 0.00023551 |   0.0 |  0.00
Modify  | 1.069      | 1.0798     | 1.0892     |   0.6 |  3.49
Other   |            | 0.1673     |            |       |  0.54

Nlocal:    131 ave 143 max 118 min
Histogram: 1 1 0 1 4 0 2 0 1 2
Nghost:    4213.17 ave 4242 max 4151 min
Histogram: 1 0 0 1 1 0 1 4 1 3
Neighs:    47702.2 ave 52001 max 41445 min
Histogram: 1 0 1 0 0 4 2 2 0 2

Total # of neighbors = 572427
Ave neighs/atom = 364.139
Ave special neighs/atom = 1.9084
Neighbor list builds = 202
Dangerous builds = 0
PPPM initialization ...
  extracting TIP4P info from pair style
  using 12-bit tables for long-range coulomb (../kspace.cpp:321)
  G vector (1/distance) = 0.310405
  grid = 24 24 24
  stencil order = 5
  estimated absolute RMS force accuracy = 0.00365854
  estimated relative force accuracy = 1.10176e-05
  using double precision FFTs
  3d grid and FFT values/proc = 5415 1152
Setting up Verlet run ...
  Unit style    : real
  Current step  : 5050000
  Time step     : 1
Per MPI rank memory allocation (min/avg/max) = 8.658 | 8.663 | 8.666 Mbytes
Step Density Temp Press TotEng 
 5050000    1.1529313     300.2188   -275.43447   -8331.6604 
 5100000    1.1529313     304.8103   -0.8029606   -8359.3853 
 5200000    1.1529313    313.34104    339.23672   -8359.3421 
 5300000    1.1529313    294.48869    151.06642   -8467.1566 
 5400000    1.1529313    294.11059    554.92782   -8447.6289 
 5500000    1.1529313    291.17328    580.38608   -8451.6822 
 5600000    1.1529313    291.62435   -10.028409   -8387.9567 
 5700000    1.1529313    311.01342    377.87716   -8327.8586 
 5800000    1.1529313     294.7449    64.417875   -8383.0341 
 5900000    1.1529313    296.78389    972.19217   -8425.7959 
 6000000    1.1529313    294.80442     -539.478   -8382.3022 
 6100000    1.1529313    295.99158   -446.35519   -8399.9664 
 6200000    1.1529313     310.1163    372.68048   -8364.7555 
 6300000    1.1529313    301.40941    137.13124   -8398.4622 
 6400000    1.1529313     298.0864    841.01116   -8409.9025 
 6500000    1.1529313    300.67298    1345.7847   -8458.1992 
 6600000    1.1529313    302.65929    156.76202   -8391.7187 
 6700000    1.1529313     296.1921    415.65095   -8466.1279 
 6800000    1.1529313    303.01202    654.43597   -8434.9146 
 6900000    1.1529313    301.31062    99.478264   -8359.7102 
 7000000    1.1529313    309.35085   -415.93254   -8304.9443 
 7100000    1.1529313    294.98497   -49.285808   -8430.5342 
 7200000    1.1529313    308.03845   -401.51671    -8333.476 
 7300000    1.1529313    303.23125    46.021253   -8369.1088 
 7400000    1.1529313    280.24373   -781.26881   -8509.4134 
 7500000    1.1529313    312.15722   -868.16325   -8351.2372 
 7550000    1.1529313    290.75687   -6.6247112   -8431.8506 
Loop time of 7938.81 on 12 procs for 2500000 steps with 1572 atoms

Performance: 27.208 ns/day, 0.882 hours/ns, 314.909 timesteps/s
93.4% CPU use with 12 MPI tasks x no OpenMP threads

MPI task timing breakdown:
Section |  min time  |  avg time  |  max time  |%varavg| %total
---------------------------------------------------------------
Pair    | 4333.7     | 4703.1     | 4957       | 289.6 | 59.24
Bond    | 0.87403    | 1.0723     | 1.252      |  11.1 |  0.01
Kspace  | 2102.6     | 2360.6     | 2726.9     | 408.9 | 29.74
Neigh   | 203.23     | 203.63     | 203.88     |   1.5 |  2.57
Comm    | 350.12     | 354.35     | 357.62     |  11.7 |  4.46
Output  | 0.11151    | 0.11179    | 0.11464    |   0.3 |  0.00
Modify  | 271.54     | 274.13     | 276.08     |   8.0 |  3.45
Other   |            | 41.78      |            |       |  0.53

Nlocal:    131 ave 144 max 117 min
Histogram: 1 1 1 0 3 1 0 4 0 1
Nghost:    4221.17 ave 4286 max 4145 min
Histogram: 2 0 2 0 2 1 0 1 1 3
Neighs:    47714.8 ave 55026 max 39778 min
Histogram: 1 0 2 1 2 2 0 1 2 1

Total # of neighbors = 572577
Ave neighs/atom = 364.235
Ave special neighs/atom = 1.9084
Neighbor list builds = 100669
Dangerous builds = 0
PPPM initialization ...
  extracting TIP4P info from pair style
  using 12-bit tables for long-range coulomb (../kspace.cpp:321)
  G vector (1/distance) = 0.310405
  grid = 24 24 24
  stencil order = 5
  estimated absolute RMS force accuracy = 0.00365854
  estimated relative force accuracy = 1.10176e-05
  using double precision FFTs
  3d grid and FFT values/proc = 5415 1152
Setting up Verlet run ...
  Unit style    : real
  Current step  : 0
  Time step     : 1
Per MPI rank memory allocation (min/avg/max) = 14.31 | 14.31 | 14.32 Mbytes
Step Density Temp Press TotEng 
       0    1.1529313    290.75687   -6.5740669   -8431.8506 
  100000    1.1529313    302.31039    45.781922   -8354.0919 
  200000    1.1529313    295.53036   -59.465688   -8453.6295 
  250000    1.1529313    292.89911    227.25771   -8371.5752 
Loop time of 1249.64 on 12 procs for 250000 steps with 1572 atoms

Performance: 17.285 ns/day, 1.388 hours/ns, 200.058 timesteps/s
93.2% CPU use with 12 MPI tasks x no OpenMP threads

MPI task timing breakdown:
Section |  min time  |  avg time  |  max time  |%varavg| %total
---------------------------------------------------------------
Pair    | 692.28     | 757.54     | 819.3      | 147.8 | 60.62
Bond    | 3.3218     | 3.3847     | 3.464      |   2.2 |  0.27
Kspace  | 293.45     | 355.55     | 421.05     | 216.4 | 28.45
Neigh   | 20.446     | 20.472     | 20.502     |   0.4 |  1.64
Comm    | 36.167     | 36.533     | 37.014     |   3.4 |  2.92
Output  | 0.069742   | 0.070043   | 0.070792   |   0.1 |  0.01
Modify  | 71.055     | 71.265     | 71.385     |   1.1 |  5.70
Other   |            | 4.833      |            |       |  0.39

Nlocal:    131 ave 142 max 116 min
Histogram: 1 0 0 3 3 0 1 0 1 3
Nghost:    4180.33 ave 4224 max 4120 min
Histogram: 1 0 2 2 0 0 2 0 4 1
Neighs:    47733.7 ave 55722 max 40937 min
Histogram: 1 0 1 3 5 0 0 0 1 1

Total # of neighbors = 572804
Ave neighs/atom = 364.379
Ave special neighs/atom = 1.9084
Neighbor list builds = 10064
Dangerous builds = 0
PPPM initialization ...
  extracting TIP4P info from pair style
  using 12-bit tables for long-range coulomb (../kspace.cpp:321)
  G vector (1/distance) = 0.310405
  grid = 24 24 24
  stencil order = 5
  estimated absolute RMS force accuracy = 0.00365854
  estimated relative force accuracy = 1.10176e-05
  using double precision FFTs
  3d grid and FFT values/proc = 5415 1152
Setting up Verlet run ...
  Unit style    : real
  Current step  : 250000
  Time step     : 1
Per MPI rank memory allocation (min/avg/max) = 14.31 | 14.31 | 14.32 Mbytes
Step Density Temp Press TotEng 
  250000    1.1529313    292.89911    227.19331   -8371.5752 
  300000    1.1529313    300.43604   -566.20432   -8420.4377 
  400000    1.1529313    307.54095    809.48982   -8369.9188 
  500000    1.1529313    301.91998    200.05402   -8335.7204 
Loop time of 1236.83 on 12 procs for 250000 steps with 1572 atoms

Performance: 17.464 ns/day, 1.374 hours/ns, 202.129 timesteps/s
93.8% CPU use with 12 MPI tasks x no OpenMP threads

MPI task timing breakdown:
Section |  min time  |  avg time  |  max time  |%varavg| %total
---------------------------------------------------------------
Pair    | 695.97     | 757.54     | 807.98     | 109.6 | 61.25
Bond    | 3.3459     | 3.4156     | 3.5117     |   2.3 |  0.28
Kspace  | 291.98     | 342.81     | 404.65     | 163.4 | 27.72
Neigh   | 20.313     | 20.344     | 20.371     |   0.4 |  1.64
Comm    | 36.244     | 36.598     | 37.019     |   3.0 |  2.96
Output  | 0.1014     | 0.10175    | 0.10208    |   0.1 |  0.01
Modify  | 71.011     | 71.213     | 71.342     |   1.1 |  5.76
Other   |            | 4.812      |            |       |  0.39

Nlocal:    131 ave 141 max 109 min
Histogram: 1 0 0 1 0 2 0 2 3 3
Nghost:    4211.25 ave 4263 max 4153 min
Histogram: 2 1 0 1 0 2 2 1 2 1
Neighs:    47685.4 ave 53626 max 41331 min
Histogram: 1 0 1 2 3 1 0 2 1 1

Total # of neighbors = 572225
Ave neighs/atom = 364.011
Ave special neighs/atom = 1.9084
Neighbor list builds = 10072
Dangerous builds = 0
PPPM initialization ...
  extracting TIP4P info from pair style
  using 12-bit tables for long-range coulomb (../kspace.cpp:321)
  G vector (1/distance) = 0.310405
  grid = 24 24 24
  stencil order = 5
  estimated absolute RMS force accuracy = 0.00365854
  estimated relative force accuracy = 1.10176e-05
  using double precision FFTs
  3d grid and FFT values/proc = 5415 1152
Setting up Verlet run ...
  Unit style    : real
  Current step  : 500000
  Time step     : 1
Per MPI rank memory allocation (min/avg/max) = 14.31 | 14.31 | 14.32 Mbytes
Step Density Temp Press TotEng 
  500000    1.1529313    301.91998    200.41583   -8335.7204 
  600000    1.1529313    291.84242    267.98923   -8392.0436 
  700000    1.1529313    300.34834   -486.74759   -8453.6622 
  750000    1.1529313    284.64296   -371.86003   -8435.9359 
Loop time of 1237.7 on 12 procs for 250000 steps with 1572 atoms

Performance: 17.452 ns/day, 1.375 hours/ns, 201.988 timesteps/s
93.7% CPU use with 12 MPI tasks x no OpenMP threads

MPI task timing breakdown:
Section |  min time  |  avg time  |  max time  |%varavg| %total
---------------------------------------------------------------
Pair    | 698.52     | 757.01     | 797.66     | 125.4 | 61.16
Bond    | 3.3258     | 3.3889     | 3.4927     |   2.5 |  0.27
Kspace  | 303.51     | 344.19     | 402.63     | 186.4 | 27.81
Neigh   | 20.298     | 20.336     | 20.363     |   0.5 |  1.64
Comm    | 36.215     | 36.605     | 37.047     |   3.2 |  2.96
Output  | 0.067854   | 0.0682     | 0.06876    |   0.1 |  0.01
Modify  | 71.092     | 71.284     | 71.421     |   1.0 |  5.76
Other   |            | 4.823      |            |       |  0.39

Nlocal:    131 ave 142 max 121 min
Histogram: 1 1 1 1 3 2 1 1 0 1
Nghost:    4209.5 ave 4253 max 4156 min
Histogram: 1 1 2 0 0 0 2 5 0 1
Neighs:    47702.4 ave 51864 max 42881 min
Histogram: 2 0 1 1 1 0 3 2 1 1

Total # of neighbors = 572429
Ave neighs/atom = 364.141
Ave special neighs/atom = 1.9084
Neighbor list builds = 10083
Dangerous builds = 0
PPPM initialization ...
  extracting TIP4P info from pair style
  using 12-bit tables for long-range coulomb (../kspace.cpp:321)
  G vector (1/distance) = 0.310405
  grid = 24 24 24
  stencil order = 5
  estimated absolute RMS force accuracy = 0.00365854
  estimated relative force accuracy = 1.10176e-05
  using double precision FFTs
  3d grid and FFT values/proc = 5415 1152
Setting up Verlet run ...
  Unit style    : real
  Current step  : 750000
  Time step     : 1
Per MPI rank memory allocation (min/avg/max) = 14.31 | 14.31 | 14.32 Mbytes
Step Density Temp Press TotEng 
  750000    1.1529313    284.64296   -371.99216   -8435.9359 
  800000    1.1529313    289.89417   -903.26548   -8359.4321 
  900000    1.1529313    299.93813   -289.20835   -8387.8758 
 1000000    1.1529313    304.01638   -433.18939   -8395.4415 
Loop time of 1244.93 on 12 procs for 250000 steps with 1572 atoms

Performance: 17.350 ns/day, 1.383 hours/ns, 200.815 timesteps/s
93.4% CPU use with 12 MPI tasks x no OpenMP threads

MPI task timing breakdown:
Section |  min time  |  avg time  |  max time  |%varavg| %total
---------------------------------------------------------------
Pair    | 699.92     | 757.77     | 801.54     | 138.8 | 60.87
Bond    | 3.3341     | 3.3944     | 3.4806     |   2.3 |  0.27
Kspace  | 306.8      | 350.5      | 408.6      | 204.5 | 28.15
Neigh   | 20.422     | 20.455     | 20.487     |   0.4 |  1.64
Comm    | 36.188     | 36.594     | 37.051     |   3.4 |  2.94
Output  | 0.10162    | 0.10185    | 0.10243    |   0.1 |  0.01
Modify  | 71.093     | 71.285     | 71.407     |   1.0 |  5.73
Other   |            | 4.826      |            |       |  0.39

Nlocal:    131 ave 144 max 120 min
Histogram: 1 3 0 2 1 1 1 1 0 2
Nghost:    4224.42 ave 4307 max 4141 min
Histogram: 1 1 2 0 2 2 0 1 2 1
Neighs:    47717.8 ave 53753 max 40679 min
Histogram: 1 0 2 2 0 2 1 1 2 1

Total # of neighbors = 572613
Ave neighs/atom = 364.258
Ave special neighs/atom = 1.9084
Neighbor list builds = 10093
Dangerous builds = 0
PPPM initialization ...
  extracting TIP4P info from pair style
  using 12-bit tables for long-range coulomb (../kspace.cpp:321)
  G vector (1/distance) = 0.310405
  grid = 24 24 24
  stencil order = 5
  estimated absolute RMS force accuracy = 0.00365854
  estimated relative force accuracy = 1.10176e-05
  using double precision FFTs
  3d grid and FFT values/proc = 5415 1152
Setting up Verlet run ...
  Unit style    : real
  Current step  : 1000000
  Time step     : 1
Per MPI rank memory allocation (min/avg/max) = 14.31 | 14.31 | 14.32 Mbytes
Step Density Temp Press TotEng 
 1000000    1.1529313    304.01638   -433.29024   -8395.4415 
 1100000    1.1529313    292.57598   -218.59675   -8416.3332 
 1200000    1.1529313     291.6437   -1147.3498   -8414.2983 
 1250000    1.1529313    298.36771    132.73406   -8395.3549 
Loop time of 1248.16 on 12 procs for 250000 steps with 1572 atoms

Performance: 17.306 ns/day, 1.387 hours/ns, 200.295 timesteps/s
93.3% CPU use with 12 MPI tasks x no OpenMP threads

MPI task timing breakdown:
Section |  min time  |  avg time  |  max time  |%varavg| %total
---------------------------------------------------------------
Pair    | 696.29     | 757.97     | 814.35     | 152.1 | 60.73
Bond    | 3.314      | 3.3714     | 3.4365     |   2.1 |  0.27
Kspace  | 297.54     | 353.84     | 415.41     | 223.0 | 28.35
Neigh   | 20.421     | 20.46      | 20.482     |   0.5 |  1.64
Comm    | 36.106     | 36.501     | 36.918     |   3.4 |  2.92
Output  | 0.06771    | 0.068179   | 0.068844   |   0.1 |  0.01
Modify  | 70.918     | 71.137     | 71.236     |   1.0 |  5.70
Other   |            | 4.813      |            |       |  0.39

Nlocal:    131 ave 142 max 121 min
Histogram: 3 0 1 0 2 2 1 1 0 2
Nghost:    4196.08 ave 4255 max 4146 min
Histogram: 1 1 3 1 1 1 1 1 0 2
Neighs:    47718.4 ave 54252 max 41184 min
Histogram: 1 0 1 3 1 3 1 0 0 2

Total # of neighbors = 572621
Ave neighs/atom = 364.263
Ave special neighs/atom = 1.9084
Neighbor list builds = 10069
Dangerous builds = 0
PPPM initialization ...
  extracting TIP4P info from pair style
  using 12-bit tables for long-range coulomb (../kspace.cpp:321)
  G vector (1/distance) = 0.310405
  grid = 24 24 24
  stencil order = 5
  estimated absolute RMS force accuracy = 0.00365854
  estimated relative force accuracy = 1.10176e-05
  using double precision FFTs
  3d grid and FFT values/proc = 5415 1152
Setting up Verlet run ...
  Unit style    : real
  Current step  : 1250000
  Time step     : 1
Per MPI rank memory allocation (min/avg/max) = 14.31 | 14.31 | 14.32 Mbytes
Step Density Temp Press TotEng 
 1250000    1.1529313    298.36771    132.90395   -8395.3549 
 1300000    1.1529313    292.00013   -172.39065   -8415.0831 
 1400000    1.1529313    291.60332   -778.44441   -8399.8873 
 1500000    1.1529313    304.95109    583.32168   -8449.3655 
Loop time of 1245.97 on 12 procs for 250000 steps with 1572 atoms

Performance: 17.336 ns/day, 1.384 hours/ns, 200.647 timesteps/s
93.4% CPU use with 12 MPI tasks x no OpenMP threads

MPI task timing breakdown:
Section |  min time  |  avg time  |  max time  |%varavg| %total
---------------------------------------------------------------
Pair    | 702.35     | 758.91     | 819.27     | 133.7 | 60.91
Bond    | 3.3355     | 3.3999     | 3.469      |   2.3 |  0.27
Kspace  | 290.17     | 350.44     | 407.26     | 197.3 | 28.13
Neigh   | 20.363     | 20.395     | 20.424     |   0.4 |  1.64
Comm    | 36.196     | 36.563     | 37.056     |   3.4 |  2.93
Output  | 0.10151    | 0.10186    | 0.10233    |   0.1 |  0.01
Modify  | 71.142     | 71.343     | 71.472     |   1.0 |  5.73
Other   |            | 4.821      |            |       |  0.39

Nlocal:    131 ave 137 max 122 min
Histogram: 2 0 1 0 1 0 2 1 3 2
Nghost:    4225.42 ave 4264 max 4175 min
Histogram: 2 1 1 0 0 1 1 3 0 3
Neighs:    47710.4 ave 51268 max 43727 min
Histogram: 1 1 1 2 0 1 3 0 1 2

Total # of neighbors = 572525
Ave neighs/atom = 364.202
Ave special neighs/atom = 1.9084
Neighbor list builds = 10067
Dangerous builds = 0
PPPM initialization ...
  extracting TIP4P info from pair style
  using 12-bit tables for long-range coulomb (../kspace.cpp:321)
  G vector (1/distance) = 0.310405
  grid = 24 24 24
  stencil order = 5
  estimated absolute RMS force accuracy = 0.00365854
  estimated relative force accuracy = 1.10176e-05
  using double precision FFTs
  3d grid and FFT values/proc = 5415 1152
Setting up Verlet run ...
  Unit style    : real
  Current step  : 1500000
  Time step     : 1
Per MPI rank memory allocation (min/avg/max) = 14.31 | 14.31 | 14.32 Mbytes
Step Density Temp Press TotEng 
 1500000    1.1529313    304.95109    583.29795   -8449.3655 
 1600000    1.1529313     296.3774    225.82531   -8395.9344 
 1700000    1.1529313    293.94965    284.61519   -8484.1306 
 1750000    1.1529313    281.65478   -1195.2173   -8458.7995 
Loop time of 1246.27 on 12 procs for 250000 steps with 1572 atoms

Performance: 17.332 ns/day, 1.385 hours/ns, 200.598 timesteps/s
93.3% CPU use with 12 MPI tasks x no OpenMP threads

MPI task timing breakdown:
Section |  min time  |  avg time  |  max time  |%varavg| %total
---------------------------------------------------------------
Pair    | 709.08     | 757.66     | 809.45     | 139.8 | 60.79
Bond    | 3.3135     | 3.3748     | 3.4544     |   2.1 |  0.27
Kspace  | 300.21     | 352.08     | 400.94     | 205.5 | 28.25
Neigh   | 20.447     | 20.477     | 20.501     |   0.4 |  1.64
Comm    | 36.197     | 36.556     | 36.999     |   3.4 |  2.93
Output  | 0.067856   | 0.068145   | 0.068638   |   0.1 |  0.01
Modify  | 71.039     | 71.242     | 71.359     |   1.0 |  5.72
Other   |            | 4.813      |            |       |  0.39

Nlocal:    131 ave 140 max 121 min
Histogram: 1 1 2 3 0 0 0 1 2 2
Nghost:    4208.17 ave 4285 max 4148 min
Histogram: 3 0 1 1 3 1 0 1 0 2
Neighs:    47697.7 ave 52052 max 44156 min
Histogram: 2 2 0 1 1 2 1 2 0 1

Total # of neighbors = 572372
Ave neighs/atom = 364.104
Ave special neighs/atom = 1.9084
Neighbor list builds = 10077
Dangerous builds = 0
PPPM initialization ...
  extracting TIP4P info from pair style
  using 12-bit tables for long-range coulomb (../kspace.cpp:321)
  G vector (1/distance) = 0.310405
  grid = 24 24 24
  stencil order = 5
  estimated absolute RMS force accuracy = 0.00365854
  estimated relative force accuracy = 1.10176e-05
  using double precision FFTs
  3d grid and FFT values/proc = 5415 1152
Setting up Verlet run ...
  Unit style    : real
  Current step  : 1750000
  Time step     : 1
Per MPI rank memory allocation (min/avg/max) = 14.31 | 14.31 | 14.32 Mbytes
Step Density Temp Press TotEng 
 1750000    1.1529313    281.65478   -1195.3044   -8458.7995 
 1800000    1.1529313     301.0033   -910.73603    -8446.315 
 1900000    1.1529313    301.45777    73.755769   -8419.7155 
 2000000    1.1529313    301.30001    20.878101   -8415.3144 
Loop time of 1244.91 on 12 procs for 250000 steps with 1572 atoms

Performance: 17.351 ns/day, 1.383 hours/ns, 200.818 timesteps/s
93.3% CPU use with 12 MPI tasks x no OpenMP threads

MPI task timing breakdown:
Section |  min time  |  avg time  |  max time  |%varavg| %total
---------------------------------------------------------------
Pair    | 712.31     | 756.3      | 825.4      | 128.6 | 60.75
Bond    | 3.3329     | 3.4005     | 3.4809     |   2.0 |  0.27
Kspace  | 282.51     | 351.96     | 396.18     | 189.0 | 28.27
Neigh   | 20.426     | 20.455     | 20.48      |   0.4 |  1.64
Comm    | 36.242     | 36.568     | 36.955     |   2.9 |  2.94
Output  | 0.10118    | 0.10159    | 0.10213    |   0.1 |  0.01
Modify  | 71.143     | 71.318     | 71.463     |   1.0 |  5.73
Other   |            | 4.801      |            |       |  0.39

Nlocal:    131 ave 145 max 109 min
Histogram: 1 0 0 0 1 3 4 1 0 2
Nghost:    4198.25 ave 4330 max 4110 min
Histogram: 2 0 2 3 2 0 2 0 0 1
Neighs:    47735 ave 52374 max 40555 min
Histogram: 1 0 1 0 1 2 2 3 1 1

Total # of neighbors = 572820
Ave neighs/atom = 364.389
Ave special neighs/atom = 1.9084
Neighbor list builds = 10093
Dangerous builds = 0
PPPM initialization ...
  extracting TIP4P info from pair style
  using 12-bit tables for long-range coulomb (../kspace.cpp:321)
  G vector (1/distance) = 0.310405
  grid = 24 24 24
  stencil order = 5
  estimated absolute RMS force accuracy = 0.00365854
  estimated relative force accuracy = 1.10176e-05
  using double precision FFTs
  3d grid and FFT values/proc = 5415 1152
Setting up Verlet run ...
  Unit style    : real
  Current step  : 2000000
  Time step     : 1
Per MPI rank memory allocation (min/avg/max) = 14.31 | 14.31 | 14.32 Mbytes
Step Density Temp Press TotEng 
 2000000    1.1529313    301.30001    20.617908   -8415.3144 
 2100000    1.1529313     298.5362    44.489734   -8408.7617 
 2200000    1.1529313    285.71946    -27.80391   -8543.1145 
 2300000    1.1529313    291.02632   -611.81982   -8411.3967 
 2400000    1.1529313    299.82988   -988.49935   -8371.9356 
 2500000    1.1529313    304.59136    603.66226   -8396.2007 
 2600000    1.1529313    294.57895   -6.1457127   -8412.4187 
 2700000    1.1529313    291.04405    947.28872    -8420.537 
 2800000    1.1529313    302.15513   -306.67396   -8349.8065 
 2900000    1.1529313    297.37624    878.90107   -8382.0874 
 3000000    1.1529313    293.78835   -152.49795   -8401.1293 
Loop time of 4967.3 on 12 procs for 1000000 steps with 1572 atoms

Performance: 17.394 ns/day, 1.380 hours/ns, 201.316 timesteps/s
93.3% CPU use with 12 MPI tasks x no OpenMP threads

MPI task timing breakdown:
Section |  min time  |  avg time  |  max time  |%varavg| %total
---------------------------------------------------------------
Pair    | 2788.2     | 3017.4     | 3216.9     | 261.7 | 60.74
Bond    | 13.321     | 13.549     | 13.879     |   4.5 |  0.27
Kspace  | 1202.5     | 1403.7     | 1634       | 384.8 | 28.26
Neigh   | 81.698     | 81.82      | 81.947     |   0.9 |  1.65
Comm    | 144.64     | 146.27     | 148.14     |   7.0 |  2.94
Output  | 0.33932    | 0.34021    | 0.34218    |   0.1 |  0.01
Modify  | 284.26     | 285        | 285.44     |   1.9 |  5.74
Other   |            | 19.26      |            |       |  0.39

Nlocal:    131 ave 143 max 117 min
Histogram: 1 1 0 1 1 2 4 1 0 1
Nghost:    4213.58 ave 4267 max 4153 min
Histogram: 1 1 0 3 1 1 2 0 1 2
Neighs:    47681.6 ave 54650 max 41181 min
Histogram: 2 1 1 1 2 1 0 1 1 2

Total # of neighbors = 572179
Ave neighs/atom = 363.982
Ave special neighs/atom = 1.9084
Neighbor list builds = 40286
Dangerous builds = 0
PPPM initialization ...
  extracting TIP4P info from pair style
  using 12-bit tables for long-range coulomb (../kspace.cpp:321)
  G vector (1/distance) = 0.310405
  grid = 24 24 24
  stencil order = 5
  estimated absolute RMS force accuracy = 0.00365854
  estimated relative force accuracy = 1.10176e-05
  using double precision FFTs
  3d grid and FFT values/proc = 5415 1152
Setting up Verlet run ...
  Unit style    : real
  Current step  : 3000000
  Time step     : 1
Per MPI rank memory allocation (min/avg/max) = 14.31 | 14.31 | 14.32 Mbytes
Step Density Temp Press TotEng 
 3000000    1.1529313    293.78835   -152.23873   -8401.1293 
 3100000    1.1529313    300.84174    414.55253   -8382.6517 
 3200000    1.1529313     289.1623    188.29927   -8354.1581 
 3300000    1.1529313    303.58527    393.59481   -8374.6411 
 3400000    1.1529313    304.77678    501.17981   -8391.4522 
 3500000    1.1529313    284.33423    651.64125   -8508.4872 
 3600000    1.1529313    296.95006   -631.74998   -8438.9958 
 3700000    1.1529313    307.35688     561.5331   -8320.7609 
 3800000    1.1529313    306.44859    409.03126   -8370.5489 
 3900000    1.1529313    304.39702    509.40913   -8443.9796 
 4000000    1.1529313    292.32134    204.66644   -8356.5335 
Loop time of 4959.47 on 12 procs for 1000000 steps with 1572 atoms

Performance: 17.421 ns/day, 1.378 hours/ns, 201.635 timesteps/s
93.6% CPU use with 12 MPI tasks x no OpenMP threads

MPI task timing breakdown:
Section |  min time  |  avg time  |  max time  |%varavg| %total
---------------------------------------------------------------
Pair    | 2816.5     | 3021       | 3193.2     | 228.7 | 60.91
Bond    | 13.352     | 13.604     | 13.946     |   4.2 |  0.27
Kspace  | 1220.7     | 1392.6     | 1598.2     | 337.8 | 28.08
Neigh   | 81.284     | 81.428     | 81.551     |   0.9 |  1.64
Comm    | 144.6      | 146.05     | 147.96     |   6.6 |  2.94
Output  | 0.33868    | 0.33924    | 0.34097    |   0.1 |  0.01
Modify  | 284.39     | 285.2      | 285.68     |   2.1 |  5.75
Other   |            | 19.26      |            |       |  0.39

Nlocal:    131 ave 142 max 117 min
Histogram: 1 0 1 0 3 1 1 2 2 1
Nghost:    4205.25 ave 4260 max 4151 min
Histogram: 1 0 1 2 3 1 1 1 1 1
Neighs:    47715.8 ave 51885 max 42345 min
Histogram: 1 3 0 1 0 0 1 1 3 2

Total # of neighbors = 572590
Ave neighs/atom = 364.243
Ave special neighs/atom = 1.9084
Neighbor list builds = 40290
Dangerous builds = 0
PPPM initialization ...
  extracting TIP4P info from pair style
  using 12-bit tables for long-range coulomb (../kspace.cpp:321)
  G vector (1/distance) = 0.310405
  grid = 24 24 24
  stencil order = 5
  estimated absolute RMS force accuracy = 0.00365854
  estimated relative force accuracy = 1.10176e-05
  using double precision FFTs
  3d grid and FFT values/proc = 5415 1152
Setting up Verlet run ...
  Unit style    : real
  Current step  : 4000000
  Time step     : 1
Per MPI rank memory allocation (min/avg/max) = 14.31 | 14.31 | 14.32 Mbytes
Step Density Temp Press TotEng 
 4000000    1.1529313    292.32134    204.50846   -8356.5335 
 4100000    1.1529313    301.64917    747.94348   -8445.2248 
 4200000    1.1529313    304.79898   -536.21882   -8385.6535 
 4300000    1.1529313     290.5489    -897.7498   -8451.5272 
 4400000    1.1529313    300.02021   -901.80247   -8377.2794 
 4500000    1.1529313    301.81275    332.08007   -8383.5379 
 4600000    1.1529313     287.5315   -162.50266   -8446.1039 
 4700000    1.1529313    290.11505   -519.26984   -8449.7422 
 4800000    1.1529313    290.12824    515.14507   -8482.8941 
 4900000    1.1529313    306.59082    300.58415    -8369.836 
 5000000    1.1529313    307.76676    -521.5113   -8369.7536 
Loop time of 4959.3 on 12 procs for 1000000 steps with 1572 atoms

Performance: 17.422 ns/day, 1.378 hours/ns, 201.641 timesteps/s
93.5% CPU use with 12 MPI tasks x no OpenMP threads

MPI task timing breakdown:
Section |  min time  |  avg time  |  max time  |%varavg| %total
---------------------------------------------------------------
Pair    | 2766.3     | 3027       | 3203.5     | 249.1 | 61.04
Bond    | 13.233     | 13.548     | 13.935     |   4.7 |  0.27
Kspace  | 1208.4     | 1386.3     | 1648.2     | 369.0 | 27.95
Neigh   | 81.536     | 81.696     | 81.817     |   1.0 |  1.65
Comm    | 144.44     | 146.07     | 147.95     |   6.9 |  2.95
Output  | 0.33961    | 0.34024    | 0.34113    |   0.1 |  0.01
Modify  | 284.2      | 285.08     | 285.48     |   2.2 |  5.75
Other   |            | 19.26      |            |       |  0.39

Nlocal:    131 ave 141 max 120 min
Histogram: 1 1 2 0 1 2 1 1 2 1
Nghost:    4222.5 ave 4284 max 4140 min
Histogram: 1 0 2 0 0 3 2 2 0 2
Neighs:    47740.8 ave 53676 max 41168 min
Histogram: 1 1 1 2 2 0 0 2 2 1

Total # of neighbors = 572889
Ave neighs/atom = 364.433
Ave special neighs/atom = 1.9084
Neighbor list builds = 40277
Dangerous builds = 0
PPPM initialization ...
  extracting TIP4P info from pair style
  using 12-bit tables for long-range coulomb (../kspace.cpp:321)
  G vector (1/distance) = 0.310405
  grid = 24 24 24
  stencil order = 5
  estimated absolute RMS force accuracy = 0.00365854
  estimated relative force accuracy = 1.10176e-05
  using double precision FFTs
  3d grid and FFT values/proc = 5415 1152
Setting up Verlet run ...
  Unit style    : real
  Current step  : 5000000
  Time step     : 1
Per MPI rank memory allocation (min/avg/max) = 14.31 | 14.31 | 14.32 Mbytes
Step Density Temp Press TotEng 
 5000000    1.1529313    307.76676   -521.68361   -8369.7536 
 5100000    1.1529313    291.72974    494.98224   -8346.2988 
 5200000    1.1529313    306.27567    -395.8242   -8379.7973 
 5300000    1.1529313    285.93609   -122.47701   -8430.0883 
 5400000    1.1529313    299.66831    972.57957   -8375.2847 
 5500000    1.1529313    282.49297    -708.4736   -8395.7773 
 5600000    1.1529313    291.97922   -303.09275   -8405.4931 
 5700000    1.1529313    303.71441    584.64257   -8409.6655 
 5800000    1.1529313    281.60139    68.364206   -8501.0744 
 5900000    1.1529313    293.54211   -1459.8438   -8398.4584 
 6000000    1.1529313    305.11306   -918.19919   -8394.5195 
Loop time of 4975.07 on 12 procs for 1000000 steps with 1572 atoms

Performance: 17.367 ns/day, 1.382 hours/ns, 201.002 timesteps/s
93.5% CPU use with 12 MPI tasks x no OpenMP threads

MPI task timing breakdown:
Section |  min time  |  avg time  |  max time  |%varavg| %total
---------------------------------------------------------------
Pair    | 2790       | 3030.9     | 3228.6     | 257.7 | 60.92
Bond    | 13.297     | 13.605     | 13.988     |   5.2 |  0.27
Kspace  | 1200.7     | 1398       | 1640.2     | 380.5 | 28.10
Neigh   | 81.473     | 81.627     | 81.751     |   1.0 |  1.64
Comm    | 144.44     | 146.05     | 147.87     |   6.8 |  2.94
Output  | 0.33991    | 0.34092    | 0.34226    |   0.1 |  0.01
Modify  | 284.42     | 285.26     | 285.75     |   2.1 |  5.73
Other   |            | 19.25      |            |       |  0.39

Nlocal:    131 ave 143 max 120 min
Histogram: 1 1 2 1 3 0 0 1 2 1
Nghost:    4222.58 ave 4316 max 4140 min
Histogram: 1 1 3 1 1 0 3 0 0 2
Neighs:    47722.9 ave 54130 max 43680 min
Histogram: 3 0 2 1 1 2 2 0 0 1

Total # of neighbors = 572675
Ave neighs/atom = 364.297
Ave special neighs/atom = 1.9084
Neighbor list builds = 40318
Dangerous builds = 0
PPPM initialization ...
  extracting TIP4P info from pair style
  using 12-bit tables for long-range coulomb (../kspace.cpp:321)
  G vector (1/distance) = 0.310405
  grid = 24 24 24
  stencil order = 5
  estimated absolute RMS force accuracy = 0.00365854
  estimated relative force accuracy = 1.10176e-05
  using double precision FFTs
  3d grid and FFT values/proc = 5415 1152
Setting up Verlet run ...
  Unit style    : real
  Current step  : 6000000
  Time step     : 1
Per MPI rank memory allocation (min/avg/max) = 14.31 | 14.31 | 14.32 Mbytes
Step Density Temp Press TotEng 
 6000000    1.1529313    305.11306   -918.06033   -8394.5195 
 6100000    1.1529313    292.72665    371.41588   -8421.8126 
 6200000    1.1529313     312.4228   0.18060643     -8271.19 
 6300000    1.1529313    291.45468    -984.4313   -8455.7267 
 6400000    1.1529313    298.93117   -306.95229    -8438.017 
 6500000    1.1529313    293.13751    469.79306   -8416.2857 
 6600000    1.1529313    290.95173    438.83045   -8400.8739 
 6700000    1.1529313    293.96116    247.90097   -8422.1367 
 6800000    1.1529313    299.16432    110.53219   -8413.8829 
 6900000    1.1529313    298.47195    768.03845   -8373.5347 
 7000000    1.1529313    292.87897   -164.68425   -8412.1737 
Loop time of 4991.98 on 12 procs for 1000000 steps with 1572 atoms

Performance: 17.308 ns/day, 1.387 hours/ns, 200.321 timesteps/s
93.2% CPU use with 12 MPI tasks x no OpenMP threads

MPI task timing breakdown:
Section |  min time  |  avg time  |  max time  |%varavg| %total
---------------------------------------------------------------
Pair    | 2797.6     | 3026.5     | 3242.9     | 283.2 | 60.63
Bond    | 13.281     | 13.517     | 13.783     |   4.0 |  0.27
Kspace  | 1202.9     | 1419.1     | 1649.1     | 414.5 | 28.43
Neigh   | 81.563     | 81.687     | 81.783     |   0.8 |  1.64
Comm    | 144.64     | 146.14     | 148.04     |   6.8 |  2.93
Output  | 0.33922    | 0.34017    | 0.34209    |   0.1 |  0.01
Modify  | 284.65     | 285.45     | 285.9      |   2.0 |  5.72
Other   |            | 19.26      |            |       |  0.39

Nlocal:    131 ave 143 max 121 min
Histogram: 2 0 3 0 2 2 0 1 0 2
Nghost:    4226.75 ave 4285 max 4170 min
Histogram: 2 1 1 1 1 0 2 2 1 1
Neighs:    47724.5 ave 56553 max 43573 min
Histogram: 3 2 1 3 1 0 1 0 0 1

Total # of neighbors = 572694
Ave neighs/atom = 364.309
Ave special neighs/atom = 1.9084
Neighbor list builds = 40239
Dangerous builds = 0
PPPM initialization ...
  extracting TIP4P info from pair style
  using 12-bit tables for long-range coulomb (../kspace.cpp:321)
  G vector (1/distance) = 0.310405
  grid = 24 24 24
  stencil order = 5
  estimated absolute RMS force accuracy = 0.00365854
  estimated relative force accuracy = 1.10176e-05
  using double precision FFTs
  3d grid and FFT values/proc = 5415 1152
Setting up Verlet run ...
  Unit style    : real
  Current step  : 7000000
  Time step     : 1
Per MPI rank memory allocation (min/avg/max) = 14.31 | 14.31 | 14.32 Mbytes
Step Density Temp Press TotEng 
 7000000    1.1529313    292.87897   -164.77058   -8412.1737 
 7100000    1.1529313    291.54083   -48.355619   -8438.7834 
 7200000    1.1529313    290.57776    115.34856   -8398.8211 
 7300000    1.1529313    290.99962    640.65366   -8527.7341 
 7400000    1.1529313    304.76948   -829.07289   -8383.4483 
 7500000    1.1529313    296.18863   -473.90812   -8499.6779 
 7600000    1.1529313    300.82015    200.57578   -8392.3309 
 7700000    1.1529313    294.88769   -312.52473    -8442.717 
 7800000    1.1529313    290.46487   -570.45435   -8443.1434 
 7900000    1.1529313    302.39518   -464.48753   -8371.2625 
 8000000    1.1529313    304.50743    360.30871   -8381.5162 
Loop time of 4972.12 on 12 procs for 1000000 steps with 1572 atoms

Performance: 17.377 ns/day, 1.381 hours/ns, 201.121 timesteps/s
93.3% CPU use with 12 MPI tasks x no OpenMP threads

MPI task timing breakdown:
Section |  min time  |  avg time  |  max time  |%varavg| %total
---------------------------------------------------------------
Pair    | 2814.5     | 3013.2     | 3270.6     | 265.1 | 60.60
Bond    | 13.404     | 13.607     | 14.015     |   4.8 |  0.27
Kspace  | 1153.6     | 1412.6     | 1611       | 388.4 | 28.41
Neigh   | 81.473     | 81.596     | 81.718     |   0.8 |  1.64
Comm    | 144.78     | 146.08     | 147.91     |   6.2 |  2.94
Output  | 0.33877    | 0.33992    | 0.34149    |   0.1 |  0.01
Modify  | 284.55     | 285.39     | 285.95     |   2.2 |  5.74
Other   |            | 19.24      |            |       |  0.39

Nlocal:    131 ave 141 max 122 min
Histogram: 1 1 3 0 1 2 2 0 1 1
Nghost:    4232.75 ave 4327 max 4157 min
Histogram: 2 1 0 3 2 1 0 2 0 1
Neighs:    47699 ave 53845 max 40803 min
Histogram: 1 1 0 4 0 2 0 0 3 1

Total # of neighbors = 572388
Ave neighs/atom = 364.115
Ave special neighs/atom = 1.9084
Neighbor list builds = 40266
Dangerous builds = 0
PPPM initialization ...
  extracting TIP4P info from pair style
  using 12-bit tables for long-range coulomb (../kspace.cpp:321)
  G vector (1/distance) = 0.310405
  grid = 24 24 24
  stencil order = 5
  estimated absolute RMS force accuracy = 0.00365854
  estimated relative force accuracy = 1.10176e-05
  using double precision FFTs
  3d grid and FFT values/proc = 5415 1152
Setting up Verlet run ...
  Unit style    : real
  Current step  : 8000000
  Time step     : 1
Per MPI rank memory allocation (min/avg/max) = 14.31 | 14.31 | 14.32 Mbytes
Step Density Temp Press TotEng 
 8000000    1.1529313    304.50743    360.06699   -8381.5162 
 8100000    1.1529313    308.07122   -109.31406   -8411.6646 
 8200000    1.1529313     309.7532   -946.67931    -8395.097 
 8300000    1.1529313    297.29002    438.85681   -8349.8359 
 8400000    1.1529313      293.412    286.36946   -8392.1464 
 8500000    1.1529313    297.53204   -334.62307   -8390.7839 
 8600000    1.1529313    292.76889   -578.67235   -8457.4543 
 8700000    1.1529313    293.36643   -29.644225   -8488.0666 
 8800000    1.1529313    297.49123   -376.25546   -8400.5932 
 8900000    1.1529313    301.67917     457.0924   -8385.6063 
 9000000    1.1529313    296.13637    210.81161   -8375.8604 
Loop time of 4948.29 on 12 procs for 1000000 steps with 1572 atoms

Performance: 17.461 ns/day, 1.375 hours/ns, 202.090 timesteps/s
93.6% CPU use with 12 MPI tasks x no OpenMP threads

MPI task timing breakdown:
Section |  min time  |  avg time  |  max time  |%varavg| %total
---------------------------------------------------------------
Pair    | 2815.4     | 3026.5     | 3208.2     | 229.4 | 61.16
Bond    | 13.309     | 13.605     | 14.06      |   5.2 |  0.27
Kspace  | 1192.5     | 1375.9     | 1588.2     | 341.4 | 27.81
Neigh   | 81.433     | 81.569     | 81.676     |   0.8 |  1.65
Comm    | 144.49     | 145.92     | 147.69     |   6.4 |  2.95
Output  | 0.33933    | 0.33992    | 0.34118    |   0.1 |  0.01
Modify  | 284.4      | 285.21     | 285.74     |   2.1 |  5.76
Other   |            | 19.24      |            |       |  0.39

Nlocal:    131 ave 147 max 120 min
Histogram: 2 1 2 1 1 1 3 0 0 1
Nghost:    4204.42 ave 4239 max 4182 min
Histogram: 2 2 1 1 1 2 2 0 0 1
Neighs:    47675.9 ave 56870 max 41216 min
Histogram: 3 0 2 2 0 1 2 1 0 1

Total # of neighbors = 572111
Ave neighs/atom = 363.938
Ave special neighs/atom = 1.9084
Neighbor list builds = 40351
Dangerous builds = 0
PPPM initialization ...
  extracting TIP4P info from pair style
  using 12-bit tables for long-range coulomb (../kspace.cpp:321)
  G vector (1/distance) = 0.310405
  grid = 24 24 24
  stencil order = 5
  estimated absolute RMS force accuracy = 0.00365854
  estimated relative force accuracy = 1.10176e-05
  using double precision FFTs
  3d grid and FFT values/proc = 5415 1152
Setting up Verlet run ...
  Unit style    : real
  Current step  : 9000000
  Time step     : 1
Per MPI rank memory allocation (min/avg/max) = 14.31 | 14.32 | 14.32 Mbytes
Step Density Temp Press TotEng 
 9000000    1.1529313    296.13637    210.84047   -8375.8604 
 9100000    1.1529313    302.80042   -427.62593   -8415.9446 
 9200000    1.1529313    290.99053    153.85978   -8421.2221 
 9300000    1.1529313    289.67222   -137.06569    -8431.555 
 9400000    1.1529313    299.29486    88.164335   -8525.3685 
 9500000    1.1529313    305.65703    131.24159   -8420.8672 
 9600000    1.1529313    307.24412   -1321.2998   -8401.4086 
 9700000    1.1529313    301.22369   -183.28501   -8379.4081 
 9800000    1.1529313    308.55034    -272.2928    -8333.261 
 9900000    1.1529313    290.30336    -472.8732   -8417.4721 
10000000    1.1529313    298.18711   -515.33672   -8423.5577 
Loop time of 4963.52 on 12 procs for 1000000 steps with 1572 atoms

Performance: 17.407 ns/day, 1.379 hours/ns, 201.470 timesteps/s
93.5% CPU use with 12 MPI tasks x no OpenMP threads

MPI task timing breakdown:
Section |  min time  |  avg time  |  max time  |%varavg| %total
---------------------------------------------------------------
Pair    | 2829.7     | 3022       | 3202.6     | 243.4 | 60.88
Bond    | 13.339     | 13.603     | 13.981     |   4.3 |  0.27
Kspace  | 1212.8     | 1395.2     | 1588.6     | 359.4 | 28.11
Neigh   | 81.479     | 81.621     | 81.738     |   0.9 |  1.64
Comm    | 144.6      | 146.09     | 148.08     |   7.1 |  2.94
Output  | 0.33876    | 0.33946    | 0.34094    |   0.1 |  0.01
Modify  | 284.63     | 285.44     | 285.91     |   2.0 |  5.75
Other   |            | 19.23      |            |       |  0.39

Nlocal:    131 ave 140 max 124 min
Histogram: 3 1 0 1 2 1 2 1 0 1
Nghost:    4224.92 ave 4289 max 4160 min
Histogram: 1 0 2 2 0 3 0 2 1 1
Neighs:    47700.2 ave 54373 max 42624 min
Histogram: 1 0 1 5 2 2 0 0 0 1

Total # of neighbors = 572402
Ave neighs/atom = 364.123
Ave special neighs/atom = 1.9084
Neighbor list builds = 40317
Dangerous builds = 0
PPPM initialization ...
  extracting TIP4P info from pair style
  using 12-bit tables for long-range coulomb (../kspace.cpp:321)
  G vector (1/distance) = 0.310405
  grid = 24 24 24
  stencil order = 5
  estimated absolute RMS force accuracy = 0.00365854
  estimated relative force accuracy = 1.10176e-05
  using double precision FFTs
  3d grid and FFT values/proc = 5415 1152
Setting up Verlet run ...
  Unit style    : real
  Current step  : 10000000
  Time step     : 1
Per MPI rank memory allocation (min/avg/max) = 14.31 | 14.32 | 14.32 Mbytes
Step Density Temp Press TotEng 
10000000    1.1529313    298.18711   -515.28048   -8423.5577 
10100000    1.1529313    294.38788    419.89861    -8443.723 
10200000    1.1529313    294.18832    5.9917739   -8484.9842 
10300000    1.1529313    287.25467   -161.18969   -8484.5402 
10400000    1.1529313    300.15986    375.53564   -8351.8603 
10500000    1.1529313    303.21896   -1160.2846   -8363.5546 
10600000    1.1529313    289.38473   -329.87412   -8399.2769 
10700000    1.1529313    296.03029    244.26956   -8448.4021 
10800000    1.1529313    301.43938    323.87342   -8370.9752 
10900000    1.1529313    303.75939    865.40759   -8419.5067 
11000000    1.1529313    301.41406   -377.67522   -8372.5144 
11100000    1.1529313    301.01257    553.54395   -8466.2065 
11200000    1.1529313    297.09498   -334.94368   -8398.3156 
11300000    1.1529313    296.17185   -277.38966   -8355.4905 
11400000    1.1529313    289.93309   -252.93525   -8466.4859 
11500000    1.1529313    300.52272    648.90054   -8376.5983 
11600000    1.1529313    296.34646    93.313623   -8433.9872 
11700000    1.1529313    301.82765     331.7594   -8413.2228 
11800000    1.1529313     305.0096   -25.334575   -8393.6328 
11900000    1.1529313    295.96686    448.90668   -8363.7229 
12000000    1.1529313    318.94658    283.78214   -8294.1364 
12100000    1.1529313    288.51105   -817.09998   -8377.9009 
12200000    1.1529313    302.55607   -886.12007   -8382.2437 
12300000    1.1529313    287.85941    859.14329   -8442.6199 
12400000    1.1529313    304.29953   -707.77393   -8344.1489 
12500000    1.1529313    293.50593    563.00198   -8470.7717 
Loop time of 12444.3 on 12 procs for 2500000 steps with 1572 atoms

Performance: 17.357 ns/day, 1.383 hours/ns, 200.894 timesteps/s
93.2% CPU use with 12 MPI tasks x no OpenMP threads

MPI task timing breakdown:
Section |  min time  |  avg time  |  max time  |%varavg| %total
---------------------------------------------------------------
Pair    | 6969.9     | 7551.3     | 8092.9     | 436.6 | 60.68
Bond    | 33.196     | 33.827     | 34.76      |   7.5 |  0.27
Kspace  | 2981.8     | 3527.6     | 4111.7     | 640.3 | 28.35
Neigh   | 203.94     | 204.29     | 204.57     |   1.4 |  1.64
Comm    | 361.64     | 365.23     | 369.59     |  10.1 |  2.93
Output  | 0.84834    | 0.84997    | 0.85402    |   0.1 |  0.01
Modify  | 711.23     | 713.17     | 714.37     |   3.1 |  5.73
Other   |            | 48.04      |            |       |  0.39

Nlocal:    131 ave 144 max 117 min
Histogram: 1 1 0 1 1 3 3 1 0 1
Nghost:    4219.75 ave 4283 max 4147 min
Histogram: 2 0 2 2 1 0 0 1 0 4
Neighs:    47693 ave 55010 max 40548 min
Histogram: 1 0 2 1 2 3 0 1 0 2

Total # of neighbors = 572316
Ave neighs/atom = 364.069
Ave special neighs/atom = 1.9084
Neighbor list builds = 100790
Dangerous builds = 0
PPPM initialization ...
  extracting TIP4P info from pair style
  using 12-bit tables for long-range coulomb (../kspace.cpp:321)
  G vector (1/distance) = 0.310405
  grid = 24 24 24
  stencil order = 5
  estimated absolute RMS force accuracy = 0.00365854
  estimated relative force accuracy = 1.10176e-05
  using double precision FFTs
  3d grid and FFT values/proc = 5415 1152
Setting up Verlet run ...
  Unit style    : real
  Current step  : 12500000
  Time step     : 1
Per MPI rank memory allocation (min/avg/max) = 14.31 | 14.32 | 14.32 Mbytes
Step Density Temp Press TotEng 
12500000    1.1529313    293.50593    562.73176   -8470.7717 
12600000    1.1529313    292.95632   -39.554497   -8418.6141 
12700000    1.1529313    317.03443   -241.92466   -8286.6303 
12800000    1.1529313    297.16279   -14.922505   -8405.7417 
12900000    1.1529313    291.55293   -680.92793   -8488.7932 
13000000    1.1529313    296.02968    826.50644   -8480.4098 
13100000    1.1529313    296.63828    541.19521   -8449.0625 
13200000    1.1529313    315.72672    569.08062   -8363.9263 
13300000    1.1529313    294.70799   -141.44847   -8390.3899 
13400000    1.1529313    305.51273   -317.23257   -8349.3862 
13500000    1.1529313    305.45735    388.91151   -8347.1206 
13600000    1.1529313    300.19115   -553.90602   -8396.8953 
13700000    1.1529313    302.74076    415.62994   -8379.2355 
13800000    1.1529313    285.12809    325.08362   -8438.7415 
13900000    1.1529313    307.35103      23.4353   -8426.9006 
14000000    1.1529313    297.09324   -296.94408   -8453.6451 
14100000    1.1529313     294.1315   -823.05615   -8419.0503 
14200000    1.1529313     287.7101   -306.53001    -8461.471 
14300000    1.1529313    301.26613    -510.9959   -8449.5762 
14400000    1.1529313    289.30682     6.565285   -8364.3376 
14500000    1.1529313    289.07912   -272.91819   -8426.3056 
14600000    1.1529313    301.56992    170.79944   -8395.4812 
14700000    1.1529313     284.5894    368.62251   -8436.6192 
14800000    1.1529313    311.96876   -57.411875   -8369.7512 
14900000    1.1529313    305.36186    1096.3155   -8379.1726 
15000000    1.1529313    301.28894    129.28617    -8374.974 
Loop time of 12432.4 on 12 procs for 2500000 steps with 1572 atoms

Performance: 17.374 ns/day, 1.381 hours/ns, 201.087 timesteps/s
93.3% CPU use with 12 MPI tasks x no OpenMP threads

MPI task timing breakdown:
Section |  min time  |  avg time  |  max time  |%varavg| %total
---------------------------------------------------------------
Pair    | 6932.1     | 7550.4     | 8031.8     | 439.9 | 60.73
Bond    | 33.161     | 33.903     | 34.908     |   7.8 |  0.27
Kspace  | 3029       | 3514.5     | 4135.4     | 646.5 | 28.27
Neigh   | 203.74     | 204.09     | 204.39     |   1.4 |  1.64
Comm    | 361.61     | 365.29     | 369.55     |  10.1 |  2.94
Output  | 0.84584    | 0.84724    | 0.85108    |   0.1 |  0.01
Modify  | 712.72     | 714.92     | 716.1      |   3.4 |  5.75
Other   |            | 48.46      |            |       |  0.39

Nlocal:    131 ave 140 max 119 min
Histogram: 1 0 0 2 1 3 1 2 1 1
Nghost:    4225.17 ave 4285 max 4162 min
Histogram: 1 0 2 3 1 1 0 1 1 2
Neighs:    47743.2 ave 52344 max 39441 min
Histogram: 1 0 0 2 1 0 2 0 4 2

Total # of neighbors = 572919
Ave neighs/atom = 364.452
Ave special neighs/atom = 1.9084
Neighbor list builds = 100699
Dangerous builds = 0
PPPM initialization ...
  extracting TIP4P info from pair style
  using 12-bit tables for long-range coulomb (../kspace.cpp:321)
  G vector (1/distance) = 0.310405
  grid = 24 24 24
  stencil order = 5
  estimated absolute RMS force accuracy = 0.00365854
  estimated relative force accuracy = 1.10176e-05
  using double precision FFTs
  3d grid and FFT values/proc = 5415 1152
Setting up Verlet run ...
  Unit style    : real
  Current step  : 15000000
  Time step     : 1
Per MPI rank memory allocation (min/avg/max) = 14.31 | 14.32 | 14.32 Mbytes
Step Density Temp Press TotEng 
15000000    1.1529313    301.28894    129.13487    -8374.974 
15100000    1.1529313    293.50168   -226.15647   -8425.6481 
15200000    1.1529313    310.27217   -299.26069    -8292.311 
15300000    1.1529313    292.16983   -73.866561   -8404.3972 
15400000    1.1529313    291.20712   -352.77452   -8429.9347 
15500000    1.1529313    285.68853   -755.11461   -8414.8168 
15600000    1.1529313    301.25283    981.37068   -8337.7076 
15700000    1.1529313      297.323    382.15021   -8412.5183 
15800000    1.1529313     296.9601    711.21754   -8395.8998 
15900000    1.1529313    300.39684    193.42566   -8439.7389 
16000000    1.1529313    291.68448    132.81796   -8365.7063 
16100000    1.1529313    299.65276   -627.36974   -8362.2058 
16200000    1.1529313     289.9973   -105.02981   -8391.9545 
16300000    1.1529313    291.48379   -133.29098    -8443.638 
16400000    1.1529313    302.31346   -795.07989   -8369.3517 
16500000    1.1529313    293.09514     749.2009   -8400.3778 
16600000    1.1529313    291.12852   -116.51863   -8400.1828 
16700000    1.1529313    300.68713    381.63292   -8426.6423 
16800000    1.1529313    300.00257     418.2605   -8385.2305 
16900000    1.1529313    303.97328   -71.994862   -8410.6852 
17000000    1.1529313    284.43098    181.66048   -8398.4183 
17100000    1.1529313    309.60196    274.36275    -8339.654 
17200000    1.1529313    297.74796   -535.38919   -8490.6265 
17300000    1.1529313    306.05888    -587.4234   -8372.4549 
17400000    1.1529313    308.81687   -241.00394   -8329.5839 
17500000    1.1529313    278.78412   -322.44892   -8502.1169 
Loop time of 12359.1 on 12 procs for 2500000 steps with 1572 atoms

Performance: 17.477 ns/day, 1.373 hours/ns, 202.279 timesteps/s
93.6% CPU use with 12 MPI tasks x no OpenMP threads

MPI task timing breakdown:
Section |  min time  |  avg time  |  max time  |%varavg| %total
---------------------------------------------------------------
Pair    | 7034.9     | 7550.9     | 7985       | 379.7 | 61.10
Bond    | 33.201     | 33.963     | 34.915     |   7.1 |  0.27
Kspace  | 3004.2     | 3442.4     | 3957.8     | 564.0 | 27.85
Neigh   | 203.16     | 203.51     | 203.82     |   1.4 |  1.65
Comm    | 361.98     | 365.35     | 369.46     |   9.5 |  2.96
Output  | 0.84619    | 0.84726    | 0.85043    |   0.1 |  0.01
Modify  | 711.9      | 713.99     | 715.15     |   3.3 |  5.78
Other   |            | 48.24      |            |       |  0.39

Nlocal:    131 ave 142 max 117 min
Histogram: 1 0 0 0 5 0 3 1 1 1
Nghost:    4224.92 ave 4304 max 4166 min
Histogram: 1 2 0 4 2 0 0 1 1 1
Neighs:    47740.3 ave 52146 max 44643 min
Histogram: 3 1 1 0 1 3 1 1 0 1

Total # of neighbors = 572884
Ave neighs/atom = 364.43
Ave special neighs/atom = 1.9084
[...]
Neighs:    47698.1 ave 54003 max 41234 min
Histogram: 2 0 3 1 1 0 0 1 2 2

Total # of neighbors = 572377
Ave neighs/atom = 364.108
Ave special neighs/atom = 1.9084
Neighbor list builds = 100674
Dangerous builds = 0
PPPM initialization ...
  extracting TIP4P info from pair style
  using 12-bit tables for long-range coulomb (../kspace.cpp:321)
  G vector (1/distance) = 0.310405
  grid = 24 24 24
  stencil order = 5
  estimated absolute RMS force accuracy = 0.00365854
  estimated relative force accuracy = 1.10176e-05
  using double precision FFTs
  3d grid and FFT values/proc = 5415 1152
Setting up Verlet run ...
  Unit style    : real
  Current step  : 20000000
  Time step     : 1
Per MPI rank memory allocation (min/avg/max) = 14.31 | 14.32 | 14.32 Mbytes
Step Density Temp Press TotEng 
20000000    1.1529313    310.04661    24.479133   -8383.6882 
20100000    1.1529313     288.5085    779.99797   -8506.6296 
20200000    1.1529313    303.25598   -509.74027   -8397.5059 
20300000    1.1529313    288.41514    357.92546   -8466.3029 
20400000    1.1529313    294.35325    -313.3631   -8402.2758 
20500000    1.1529313    294.72726   -343.75511   -8437.0646 
20600000    1.1529313    305.21262   -486.02779   -8370.8312 
20700000    1.1529313    310.03769   -42.620924   -8360.8888 
20800000    1.1529313     286.6874    282.89376   -8414.2041 
20900000    1.1529313    304.91918    845.10595   -8400.6951 
21000000    1.1529313     295.6416    25.734402   -8344.7308 
21100000    1.1529313    296.82811   -957.59833   -8380.4077 
21200000    1.1529313     284.6749    1493.0813   -8450.4262 
21300000    1.1529313     295.6651    271.76906   -8444.8385 
21400000    1.1529313    291.98792   -243.15705   -8377.8016 
21500000    1.1529313    303.72245    732.56828   -8383.9673 
21600000    1.1529313    307.55544    222.39004   -8388.4746 
21700000    1.1529313    311.46386   -90.727182   -8347.5345 
21800000    1.1529313    295.07993    209.04358   -8402.0386 
21900000    1.1529313    306.29249   -107.91047   -8341.4752 
22000000    1.1529313    298.72361     1151.292    -8411.724 
22100000    1.1529313    298.34764    1484.1299   -8416.3949 
22200000    1.1529313    294.91353   -880.24979   -8453.9048 
22300000    1.1529313    300.42698   -94.243677   -8441.6522 
22400000    1.1529313    302.62656   -334.51304   -8392.5002 
22500000    1.1529313     294.8794    520.90861    -8364.758 
22600000    1.1529313    285.09312   -310.51796   -8476.7974 
22700000    1.1529313     293.2886     18.94014   -8392.7385 
22800000    1.1529313    288.73115    121.50195    -8378.451 
22900000    1.1529313    309.45799   -991.93401   -8354.2405 
23000000    1.1529313    289.42524   -398.78692   -8477.0278 
23100000    1.1529313    279.98077    198.12573    -8473.807 
23200000    1.1529313    301.08504     1100.616   -8385.1908 
23300000    1.1529313    303.72078    336.93382   -8280.7752 
23400000    1.1529313    295.32361    67.614325    -8475.772 
23500000    1.1529313    305.01505    67.065058   -8357.8896 
23600000    1.1529313    290.96416   -129.31114   -8432.3873 
23700000    1.1529313     286.8758   -135.44584   -8433.9015 
23800000    1.1529313    298.21082   -444.81138   -8356.9669 
23900000    1.1529313    307.46911    853.73102   -8383.1684 
24000000    1.1529313    293.79368    167.80344   -8398.7604 
24100000    1.1529313    303.82183    600.18775   -8401.4172 
24200000    1.1529313    295.06942   -356.88475   -8421.2089 
24300000    1.1529313    305.94714   -1.0351027   -8335.8489 
24400000    1.1529313     296.9919    891.91058   -8371.8327 
24500000    1.1529313    288.96471   -384.20144   -8496.2653 
24600000    1.1529313    305.12071   -172.26295   -8435.7072 
24700000    1.1529313    293.26058   -229.17212   -8470.1725 
24800000    1.1529313    298.92391     162.4088   -8384.1271 
24900000    1.1529313    298.31335    138.11979    -8406.248 
25000000    1.1529313    295.62871   -174.10034   -8401.2541 
Loop time of 24862.1 on 12 procs for 5000000 steps with 1572 atoms

Performance: 17.376 ns/day, 1.381 hours/ns, 201.109 timesteps/s
93.3% CPU use with 12 MPI tasks x no OpenMP threads

MPI task timing breakdown:
Section |  min time  |  avg time  |  max time  |%varavg| %total
---------------------------------------------------------------
Pair    | 13998      | 15116      | 16164      | 612.9 | 60.80
Bond    | 66.273     | 67.69      | 69.349     |  10.1 |  0.27
Kspace  | 5968.8     | 7015.4     | 8139.4     | 902.0 | 28.22
Neigh   | 407.54     | 408.29     | 408.87     |   2.1 |  1.64
Comm    | 722.29     | 729.7      | 738.6      |  14.6 |  2.93
Output  | 1.7025     | 1.7052     | 1.7124     |   0.2 |  0.01
Modify  | 1422.8     | 1426.8     | 1429.1     |   4.6 |  5.74
Other   |            | 96.19      |            |       |  0.39

Nlocal:    131 ave 142 max 121 min
Histogram: 2 1 0 1 1 3 2 1 0 1
Nghost:    4212.08 ave 4247 max 4193 min
Histogram: 3 2 2 0 2 1 0 0 0 2
Neighs:    47683.8 ave 53387 max 41731 min
Histogram: 1 0 2 1 1 2 3 1 0 1

Total # of neighbors = 572205
Ave neighs/atom = 363.998
Ave special neighs/atom = 1.9084
Neighbor list builds = 201359
Dangerous builds = 0
PPPM initialization ...
  extracting TIP4P info from pair style
  using 12-bit tables for long-range coulomb (../kspace.cpp:321)
  G vector (1/distance) = 0.310405
  grid = 24 24 24
  stencil order = 5
  estimated absolute RMS force accuracy = 0.00365854
  estimated relative force accuracy = 1.10176e-05
  using double precision FFTs
  3d grid and FFT values/proc = 5415 1152
Setting up Verlet run ...
  Unit style    : real
  Current step  : 25000000
  Time step     : 1
Per MPI rank memory allocation (min/avg/max) = 14.31 | 14.32 | 14.32 Mbytes
Step Density Temp Press TotEng 
25000000    1.1529313    295.62871   -174.08933   -8401.2541 
25100000    1.1529313     286.4813   -222.32019   -8442.4775 
25200000    1.1529313    292.99599   -71.914506   -8460.9337 
25300000    1.1529313    296.71014    -310.7187   -8409.7757 
25400000    1.1529313    297.30994   -867.43733   -8394.3778 
25500000    1.1529313     296.9802   -826.96009   -8453.9638 
25600000    1.1529313    294.71372    60.331478   -8399.1612 
25700000    1.1529313    297.22562   -401.62236   -8465.3229 
25800000    1.1529313    301.76853   -381.15766   -8379.1011 
25900000    1.1529313    307.78459    968.82866    -8365.865 
26000000    1.1529313    290.35511    -865.3872   -8396.4173 
26100000    1.1529313    301.39308   -194.36972   -8379.3287 
26200000    1.1529313    302.26823   -237.30245   -8399.8462 
26300000    1.1529313    299.27997    -858.6325    -8391.069 
26400000    1.1529313    296.77634   -33.207002   -8424.9184 
26500000    1.1529313    297.93219     558.7301   -8379.0948 
26600000    1.1529313    300.26466    452.60108   -8372.3719 
26700000    1.1529313    301.60369   -515.13874   -8403.7733 
26800000    1.1529313     302.2134   -624.10963   -8463.5665 
26900000    1.1529313    295.65161    191.95682   -8426.6874 
27000000    1.1529313    304.62534   -60.577634   -8337.9354 
27100000    1.1529313    299.51066   -428.48695   -8352.7503 
27200000    1.1529313    304.47374   -208.79488   -8397.4854 
27300000    1.1529313    294.82758    1392.6537   -8400.0048 
27400000    1.1529313    311.51703    435.38456   -8386.5753 
27500000    1.1529313      297.418   -572.05841   -8370.3131 
27600000    1.1529313    290.08985    -330.4563   -8406.6811 
27700000    1.1529313    286.08241    572.64079    -8452.956 
27800000    1.1529313    283.01062   -237.02694   -8440.5338 
27900000    1.1529313    312.14545   -631.84428   -8358.9273 
28000000    1.1529313    292.98137   -6.3694101   -8423.1855 
28100000    1.1529313    294.92687    84.977824   -8441.2496 
28200000    1.1529313    294.72694    551.15493   -8411.0985 
28300000    1.1529313    295.48896    378.67406   -8371.3881 
28400000    1.1529313    292.93826    118.65385   -8472.2113 
28500000    1.1529313    300.57946    604.87689   -8396.3654 
28600000    1.1529313    301.88915   -150.79665   -8431.8847 
28700000    1.1529313    290.84918     240.5627    -8461.254 
28800000    1.1529313    303.53531     659.4734   -8407.0601 
28900000    1.1529313    301.15451   -132.68489   -8417.1352 
29000000    1.1529313     301.6906   -490.27838   -8444.2687 
29100000    1.1529313    294.77342   -265.54531   -8465.4467 
29200000    1.1529313    304.36562    251.46079   -8316.7061 
29300000    1.1529313     296.2578    -229.8637   -8403.8456 
29400000    1.1529313    285.99409   -138.34245   -8398.8701 
29500000    1.1529313    297.79398     563.7634   -8335.5585 
29600000    1.1529313     293.2203    462.58792    -8428.285 
29700000    1.1529313    304.75282    365.91907   -8406.9117 
29800000    1.1529313    304.07036    -514.8974   -8321.7892 
29900000    1.1529313    293.47282   -664.25054   -8408.8519 
30000000    1.1529313    303.33261    56.458838   -8386.8918 
Loop time of 25009.3 on 12 procs for 5000000 steps with 1572 atoms

Performance: 17.274 ns/day, 1.389 hours/ns, 199.926 timesteps/s
93.2% CPU use with 12 MPI tasks x no OpenMP threads

MPI task timing breakdown:
Section |  min time  |  avg time  |  max time  |%varavg| %total
---------------------------------------------------------------
Pair    | 14049      | 15136      | 16471      | 628.5 | 60.52
Bond    | 66.624     | 67.788     | 69.4       |  10.0 |  0.27
Kspace  | 5794.8     | 7139.4     | 8231.5     | 917.9 | 28.55
Neigh   | 408.09     | 408.74     | 409.29     |   2.0 |  1.63
Comm    | 723.75     | 730.97     | 740.38     |  15.7 |  2.92
Output  | 1.7024     | 1.7044     | 1.7107     |   0.2 |  0.01
Modify  | 1424.3     | 1428.6     | 1431       |   4.7 |  5.71
Other   |            | 96.48      |            |       |  0.39

Nlocal:    131 ave 141 max 122 min
Histogram: 2 1 1 0 1 3 2 0 1 1
Nghost:    4227.58 ave 4283 max 4157 min
Histogram: 1 1 1 2 0 1 1 2 0 3
Neighs:    47706.8 ave 56150 max 41165 min
Histogram: 1 0 2 4 1 1 1 1 0 1

Total # of neighbors = 572482
Ave neighs/atom = 364.174
Ave special neighs/atom = 1.9084
Neighbor list builds = 201471
Dangerous builds = 0
PPPM initialization ...
  extracting TIP4P info from pair style
  using 12-bit tables for long-range coulomb (../kspace.cpp:321)
  G vector (1/distance) = 0.310405
  grid = 24 24 24
  stencil order = 5
  estimated absolute RMS force accuracy = 0.00365854
  estimated relative force accuracy = 1.10176e-05
  using double precision FFTs
  3d grid and FFT values/proc = 5415 1152
Setting up Verlet run ...
  Unit style    : real
  Current step  : 30000000
  Time step     : 1
Per MPI rank memory allocation (min/avg/max) = 14.31 | 14.32 | 14.32 Mbytes
Step Density Temp Press TotEng 
30000000    1.1529313    303.33261    56.799862   -8386.8918 
30100000    1.1529313    302.94234    790.19865   -8498.0636 
30200000    1.1529313    295.80972   -872.40218   -8442.5943 
30300000    1.1529313    294.39874   -254.74011   -8393.9116 
30400000    1.1529313    303.32405     636.9204   -8357.0054 
30500000    1.1529313     294.2755    226.05298   -8414.8612 
30600000    1.1529313    292.41007   -624.48273   -8395.4354 
30700000    1.1529313    306.46902    258.98755   -8406.9632 
30800000    1.1529313    304.04844    6.2279733   -8408.9882 
30900000    1.1529313    284.21848   -890.93054   -8432.8636 
31000000    1.1529313     287.2283    670.27927   -8506.2391 
31100000    1.1529313    292.79622    104.81187   -8435.7913 
31200000    1.1529313    302.85331    -823.4619   -8395.5933 
31300000    1.1529313    280.45332   -263.92641   -8388.4828 
31400000    1.1529313    296.27305   -274.49752   -8381.6727 
31500000    1.1529313    292.97134   -68.752956   -8417.7137 
31600000    1.1529313    301.72392   -867.34313   -8373.6102 
31700000    1.1529313    281.38043    337.32697   -8438.9303 
31800000    1.1529313    296.96656    521.08646   -8396.2135 
31900000    1.1529313    287.38347    11.763542   -8411.1392 
32000000    1.1529313    304.57902   -470.81245   -8377.1468 
32100000    1.1529313    299.11123   -398.93215   -8463.4547 
32200000    1.1529313    302.56991   -56.251063   -8409.0284 
32300000    1.1529313    309.64504   -991.96135    -8389.848 
32400000    1.1529313    300.95966   -380.79993   -8451.4521 
32500000    1.1529313    297.41952   -317.99534   -8360.7706 
32600000    1.1529313    303.27631     631.6753   -8411.0135 
32700000    1.1529313    302.34623    -239.1316   -8432.8502 
32800000    1.1529313    290.58256    192.81628   -8368.0624 
32900000    1.1529313    302.32371    1564.2864   -8317.1354 
33000000    1.1529313    296.60826   -112.48498   -8379.5428 
33100000    1.1529313    313.82056    262.26307   -8384.4346 
33200000    1.1529313    300.84157   -47.937259   -8418.4779 
33300000    1.1529313    304.10883   -88.033736   -8315.7543 
33400000    1.1529313    295.92937   -105.77628   -8436.0146 
33500000    1.1529313    292.96227    303.37858   -8348.2106 
33600000    1.1529313    299.49208    364.54283   -8388.9982 
33700000    1.1529313    309.43191    853.84134   -8403.2188 
33800000    1.1529313    300.03812    219.53615   -8388.5162 
33900000    1.1529313    293.02973   -181.70304   -8453.0885 
34000000    1.1529313    285.89734   -220.78588   -8464.7079 
34100000    1.1529313    304.56579   -341.34113    -8421.692 
34200000    1.1529313    306.11215    753.09915   -8360.1988 
34300000    1.1529313    287.64395   -115.14402   -8452.1654 
34400000    1.1529313     295.3797   -345.00275   -8425.4583 
34500000    1.1529313    288.07634   -544.24349   -8379.0969 
34600000    1.1529313     306.1247    423.84913   -8401.1637 
34700000    1.1529313    295.96508    7.9671671   -8445.0411 
34800000    1.1529313     290.7993   -231.18507   -8446.0336 
34900000    1.1529313    284.20108   -372.32298   -8469.5128 
35000000    1.1529313    313.39092   -38.828055   -8370.7345 
Loop time of 24856.6 on 12 procs for 5000000 steps with 1572 atoms

Performance: 17.380 ns/day, 1.381 hours/ns, 201.154 timesteps/s
93.4% CPU use with 12 MPI tasks x no OpenMP threads

MPI task timing breakdown:
Section |  min time  |  avg time  |  max time  |%varavg| %total
---------------------------------------------------------------
Pair    | 14050      | 15129      | 16277      | 589.5 | 60.87
Bond    | 66.569     | 67.705     | 69.729     |  10.5 |  0.27
Kspace  | 5841.3     | 6996.7     | 8080.8     | 869.5 | 28.15
Neigh   | 407.27     | 407.92     | 408.49     |   1.9 |  1.64
Comm    | 723.78     | 730.64     | 739.59     |  14.1 |  2.94
Output  | 1.7004     | 1.7021     | 1.7086     |   0.2 |  0.01
Modify  | 1422.3     | 1426.5     | 1428.9     |   4.7 |  5.74
Other   |            | 96.4       |            |       |  0.39

Nlocal:    131 ave 143 max 119 min
Histogram: 2 0 0 1 4 1 1 1 1 1
Nghost:    4205.33 ave 4278 max 4152 min
Histogram: 2 1 2 1 1 2 1 1 0 1
Neighs:    47705.4 ave 56376 max 39811 min
Histogram: 1 1 0 2 2 3 2 0 0 1

Total # of neighbors = 572465
Ave neighs/atom = 364.163
Ave special neighs/atom = 1.9084
Neighbor list builds = 201368
Dangerous builds = 0
PPPM initialization ...
  extracting TIP4P info from pair style
  using 12-bit tables for long-range coulomb (../kspace.cpp:321)
  G vector (1/distance) = 0.310405
  grid = 24 24 24
  stencil order = 5
  estimated absolute RMS force accuracy = 0.00365854
  estimated relative force accuracy = 1.10176e-05
  using double precision FFTs
  3d grid and FFT values/proc = 5415 1152
Setting up Verlet run ...
  Unit style    : real
  Current step  : 35000000
  Time step     : 1
Per MPI rank memory allocation (min/avg/max) = 14.31 | 14.32 | 14.32 Mbytes
Step Density Temp Press TotEng 
35000000    1.1529313    313.39092   -38.850232   -8370.7345 
35100000    1.1529313    299.67419    11.947921   -8429.6488 
35200000    1.1529313    305.30829    544.55031   -8363.3866 
35300000    1.1529313    300.40514   -1089.5981   -8400.6797 
35400000    1.1529313    288.44246    97.888223   -8369.4879 
35500000    1.1529313    317.40399   -117.60593   -8339.8871 
35600000    1.1529313    290.55604    89.550063   -8390.2789 
35700000    1.1529313    296.84635   -206.50886   -8453.3187 
35800000    1.1529313    307.75598    99.439287   -8396.2291 
35900000    1.1529313    303.59459    451.75329   -8317.9164 
36000000    1.1529313    292.27318   -32.435659   -8376.1555 
36100000    1.1529313    296.10205   -125.59752   -8444.2197 
36200000    1.1529313    296.34322     1625.956   -8405.8337 
36300000    1.1529313    292.92035   -213.37119    -8411.773 
36400000    1.1529313    300.80513   -139.11945   -8340.7208 
36500000    1.1529313    308.13028     606.9247   -8382.8284 
36600000    1.1529313    303.24526   -922.79181   -8356.5322 
36700000    1.1529313    288.47799   -320.57647    -8428.138 
36800000    1.1529313    296.64739    -17.35789   -8433.1077 
36900000    1.1529313    282.77382    124.43883   -8387.5929 
37000000    1.1529313    294.68393   -1741.0956    -8483.641 
37100000    1.1529313    301.35892   -667.78699   -8427.4839 
37200000    1.1529313    285.03303   -102.79558   -8474.5255 
37300000    1.1529313    301.64126   -401.04814   -8343.4036 
37400000    1.1529313     294.9037    1164.1161   -8451.3337 
37500000    1.1529313    289.33511   -175.81543   -8498.4082 
37600000    1.1529313    302.32218    338.65621   -8396.2506 
37700000    1.1529313    302.67511   -104.56193     -8405.81 
37800000    1.1529313    299.80758    225.77362   -8388.3194 
37900000    1.1529313    302.00377   -417.01042   -8424.8776 
38000000    1.1529313    296.26795   -445.95264   -8409.6421 
38100000    1.1529313    310.44961    280.28267   -8383.4906 
38200000    1.1529313    275.01214   -730.19626   -8439.5128 
38300000    1.1529313     295.7982    193.63973   -8399.6346 
38400000    1.1529313    299.62214    381.51061   -8399.4731 
38500000    1.1529313    291.36508   -233.06565   -8481.7183 
38600000    1.1529313    303.52093   -224.23174   -8405.8398 
38700000    1.1529313    289.70182    297.15052   -8465.2738 
38800000    1.1529313     292.5948     331.4522   -8426.7019 
38900000    1.1529313    302.98298   -349.03398   -8337.4766 
39000000    1.1529313    296.03481   -245.65987   -8459.7393 
39100000    1.1529313    290.26567    334.81867   -8413.0761 
39200000    1.1529313    297.47822    486.02467   -8385.6865 
39300000    1.1529313     297.0349   -213.56409   -8453.4325 
39400000    1.1529313    282.91919   -382.91904   -8393.3088 
39500000    1.1529313    300.81391    247.20859   -8360.5843 
39600000    1.1529313    304.42904    -18.53221   -8359.4948 
39700000    1.1529313    292.97034   -112.93419   -8388.5259 
39800000    1.1529313    287.12147   -609.68669   -8404.6322 
39900000    1.1529313    291.40563    367.41918   -8389.1065 
40000000    1.1529313     293.4145   -1185.2856   -8454.7132 
Loop time of 24945.6 on 12 procs for 5000000 steps with 1572 atoms

Performance: 17.318 ns/day, 1.386 hours/ns, 200.436 timesteps/s
93.3% CPU use with 12 MPI tasks x no OpenMP threads

MPI task timing breakdown:
Section |  min time  |  avg time  |  max time  |%varavg| %total
---------------------------------------------------------------
Pair    | 13839      | 15117      | 16146      | 649.9 | 60.60
Bond    | 66.28      | 67.639     | 69.534     |  10.5 |  0.27
Kspace  | 6060.2     | 7097       | 8380.4     | 951.1 | 28.45
Neigh   | 408.01     | 408.66     | 409.26     |   2.0 |  1.64
Comm    | 723.26     | 730.34     | 738.51     |  13.5 |  2.93
Output  | 1.702      | 1.7043     | 1.7106     |   0.2 |  0.01
Modify  | 1422.6     | 1427       | 1429.6     |   4.9 |  5.72
Other   |            | 96.22      |            |       |  0.39

Nlocal:    131 ave 139 max 119 min
Histogram: 1 0 0 2 2 0 2 1 2 2
Nghost:    4210.08 ave 4280 max 4139 min
Histogram: 1 0 2 2 2 2 0 0 2 1
Neighs:    47704 ave 51886 max 41185 min
Histogram: 1 0 0 0 3 2 2 1 1 2

Total # of neighbors = 572448
Ave neighs/atom = 364.153
Ave special neighs/atom = 1.9084
Neighbor list builds = 201420
Dangerous builds = 0
