1572
Atoms. Timestep: 0
Ow 8.67785 14.3072 15.8574
H 8.88107 14.0783 16.7644
H 9.4707 14.7355 15.5346
Ow 20.6437 3.78094 22.7523
H 21.1758 3.02369 22.508
H 21.0758 4.13748 23.5284
Ow 24.3949 13.7289 18.5095
H 23.8104 14.321 18.0363
H 23.8092 13.1024 18.9345
Ow 14.5401 21.8235 3.20234
H 15.3896 22.0153 2.805
H 14.73 21.7152 4.13423
Ow 8.02606 13.7243 2.49984
H 7.09534 13.7457 2.72242
H 8.09367 14.2461 1.70027
Ow 24.0386 15.6675 20.7271
H 24.228 14.9516 20.1206
H 24.8873 15.8878 21.1108
Ow 5.1801 13.3541 18.6353
H 5.73784 13.3408 19.4132
H 4.35019 12.9781 18.9286
Ow 1.22383 16.205 7.50513
H 2.10575 16.5686 7.58429
H 0.700754 16.9206 7.14395
Ow 12.5199 5.39122 1.29416
H 12.1005 4.76097 1.87996
H 13.1144 4.86405 0.76045
Ow 7.39739 24.1724 22.4817
H 6.70494 24.5896 21.9691
H 8.1486 24.7588 22.3923
Ow 8.68876 6.46915 6.23069
H 9.09474 6.78158 7.03927
H 8.04332 5.82416 6.51988
Ow 19.1366 7.85975 19.2585
H 19.267 7.27522 18.5119
H 18.2361 7.69473 19.538
Ow 9.10397 23.974 6.45764
H 9.075 24.822 6.01448
H 9.30077 23.3464 5.76224
Ow 2.1611 19.7345 24.638
H 2.57386 19.8594 25.4926
H 1.74721 20.576 24.4461
Ow 13.2354 5.74887 10.215
H 14.0999 5.35369 10.1029
H 12.7699 5.54191 9.40459
Ow 17.4518 4.38268 4.2707
H 16.7687 5.00726 4.51461
H 18.2697 4.86941 4.37299
Ow 21.5108 4.25908 0.37441
H 22.3352 4.34375 0.853419
H 21.1283 3.44319 0.697309
Ow 8.05738 20.4942 15.7181
H 7.44331 21.1468 15.3816
H 8.09522 20.6632 16.6595
Ow 18.8033 0.934528 15.549
H 19.2305 25.7112 15.4843
H 19.0476 1.38683 14.7415
Ow 8.57561 15.0961 0.320491
H 8.32678 14.6207 25.1586
H 7.79518 15.5988 0.553803
Ow 23.0868 0.584251 13.2923
H 23.1004 0.977919 12.4199
H 23.5237 1.22613 13.852
Ow 4.35838 16.0398 3.44639
H 4.42812 16.5783 4.23467
H 3.78648 16.5398 2.86401
Ow 21.8069 17.5552 10.3799
H 22.3866 18.3134 10.3077
H 21.0829 17.8579 10.928
Ow 13.3841 19.1265 7.92375
H 12.8269 18.9175 7.17406
H 14.2738 19.1203 7.57064
Ow 5.85551 2.36335 23.3783
H 6.18346 2.82811 24.1481
H 6.60785 2.31525 22.7884
Ow 13.291 9.17124 24.6252
H 13.6802 9.07204 23.7563
H 13.594 8.40525 25.1127
Ow 0.509981 12.2344 21.1423
H 1.16872 12.27 20.4488
H 0.787637 12.9003 21.7714
Ow 19.7551 5.91589 24.5462
H 20.5063 5.6353 25.0689
H 19.0237 5.39517 24.8783
Ow 20.0087 22.4611 8.52264
H 19.3187 23.0976 8.70984
H 20.6802 22.6341 9.18241
Ow 15.4582 20.073 18.8694
H 16.0812 20.6128 19.356
H 15.549 19.1995 19.25
Ow 21.8135 22.7952 10.5615
H 22.013 21.8597 10.5272
H 22.5472 23.2138 10.1114
Ow 12.938 16.3512 14.1637
H 13.0868 16.1545 13.2388
H 12.6473 17.2632 14.1713
Ow 21.2243 12.3405 0.981666
H 21.2568 12.0091 1.87906
H 21.6697 13.1868 1.02214
Ow 22.9019 1.14044 8.5531
H 23.5287 0.973257 7.8492
H 22.0547 0.890151 8.18455
Ow 14.6627 4.09995 7.19755
H 15.4076 4.62026 7.49872
H 14.5247 3.45467 7.89095
Ow 13.7991 21.7771 17.602
H 14.3173 21.19 18.1526
H 14.2548 21.7812 16.7603
Ow 0.882345 4.44915 24.6003
H 25.5874 4.21983 24.5195
H 0.909641 5.09015 25.3107
Ow 10.6133 22.2589 18.8058
H 9.66186 22.2504 18.7009
H 10.8896 23.0912 18.4223
Ow 17.6045 2.858 1.80907
H 17.3648 3.48938 2.48738
H 17.5865 3.36161 0.995262
Ow 23.0723 24.8782 20.9308
H 22.9452 23.9892 20.5995
H 23.9736 25.0963 20.6935
Ow 13.6289 25.4221 21.7323
H 13.9853 0.282659 20.9922
H 13.866 24.5123 21.5528
Ow 6.96937 5.7057 22.4611
H 7.24142 4.90939 22.0049
H 6.43382 5.3934 23.1904
Ow 12.3725 1.00235 23.7289
H 12.8425 0.678556 22.9605
H 12.0034 1.84003 23.4491
Ow 7.58246 13.108 24.2898
H 7.90894 12.2169 24.1654
H 6.81158 13.0055 24.8479
Ow 2.93572 1.29092 23.2639
H 2.12589 1.59507 22.8541
H 3.19652 0.530346 22.7445
Ow 14.0133 4.29223 22.7203
H 13.1484 3.89776 22.8319
H 14.6257 3.56711 22.8447
Ow 22.3524 6.24548 22.5413
H 22.476 6.75596 23.3416
H 22.8226 5.4276 22.7034
Ow 23.8656 2.49236 3.77222
H 23.4653 2.4324 2.90478
H 23.9512 3.43213 3.93255
Ow 19.5006 13.0172 21.9857
H 20.3556 12.5877 21.9623
H 19.1884 12.9798 21.0817
Ow 10.8731 25.263 20.6543
H 10.5733 25.6229 19.8195
H 11.7618 24.9546 20.4774
Ow 5.38156 24.9782 20.8592
H 5.64207 24.6703 19.9911
H 5.30074 0.296278 20.763
Ow 1.01731 10.1558 3.33918
H 1.5645 9.39853 3.54752
H 1.18838 10.7774 4.04668
Ow 20.9734 23.2141 1.93056
H 21.3137 23.9109 1.36945
H 21.6966 23.0082 2.52281
Ow 25.422 21.4058 4.25444
H 24.9943 22.07 3.71385
H 24.702 20.9573 4.69791
Ow 14.8564 10.9005 0.729478
H 14.4853 10.1561 0.255794
H 14.1129 11.2833 1.19537
Ow 23.9958 9.32203 3.91755
H 23.8594 8.73191 3.17634
H 24.8812 9.66345 3.7927
Ow 10.175 11.613 4.43457
H 9.55652 11.6122 5.16516
H 10.2665 10.6904 4.19665
Ow 6.59448 5.26818 14.7917
H 7.26037 5.43903 15.4577
H 7.0853 4.9293 14.043
Ow 14.1957 12.3254 16.3559
H 14.6359 11.8456 17.0575
H 13.3524 11.8838 16.2555
Ow 25.5369 14.7798 14.9653
H 0.512049 14.634 15.6918
H 24.9559 14.0192 14.9811
Ow 2.19908 10.6697 0.693242
H 2.02751 10.6476 1.63468
H 2.29554 11.5997 0.48864
Ow 21.5164 6.86123 14.1735
H 21.045 6.66845 14.9839
H 20.8999 6.63379 13.4774
Ow 11.5786 21.861 3.33127
H 11.2751 21.4514 4.14146
H 12.5301 21.9042 3.42597
Ow 14.5503 8.46847 22.3848
H 14.7929 9.08393 21.6929
H 15.3824 8.09793 22.6789
Ow 17.8057 19.6448 2.48511
H 18.5695 19.9563 1.99946
H 17.4112 18.9852 1.91465
Ow 14.0655 6.19081 15.9203
H 14.3588 5.36373 16.3026
H 13.1912 6.00117 15.5798
Ow 24.0108 12.2468 14.9194
H 23.4821 11.7236 15.5218
H 24.3521 11.6137 14.2878
Ow 6.7864 2.27502 18.2147
H 7.15228 1.62477 17.6151
H 7.54341 2.6131 18.6931
Ow 12.2185 19.1394 14.0723
H 11.6296 18.9469 13.3426
H 12.9742 19.5632 13.6655
Ow 2.9103 25.4556 2.17579
H 1.95646 25.5201 2.12806
H 3.08021 25.0278 3.01501
Ow 1.96313 14.5581 4.61074
H 2.18732 15.2948 4.04219
H 1.04019 14.6931 4.82571
Ow 20.8675 22.6751 17.52
H 20.5237 23.3681 18.0836
H 21.8168 22.722 17.6337
Ow 10.1956 7.28758 8.35704
H 10.6902 8.0886 8.18392
H 9.48011 7.56613 8.92858
Ow 16.4288 17.7113 23.9363
H 16.0974 18.4512 23.4274
H 16.1709 16.9391 23.433
Ow 6.22523 1.3024 12.3677
H 5.29632 1.49168 12.5001
H 6.31552 1.19399 11.421
Ow 25.4919 18.2394 6.29366
H 24.7266 18.7934 6.44773
H 25.4875 18.0813 5.34962
Ow 15.7038 2.39156 22.3713
H 15.7995 1.7381 23.0641
H 16.0923 1.98097 21.5988
Ow 7.04442 10.7866 3.63744
H 7.08339 9.90897 4.01756
H 7.58727 11.3228 4.2154
Ow 19.7303 2.42197 13.5197
H 20.0199 3.25715 13.8868
H 20.5298 2.01773 13.1828
Ow 19.9212 2.69308 18.896
H 19.347 1.95547 19.1021
H 19.9163 2.74119 17.94
Ow 19.6249 6.14116 4.855
H 19.3599 6.35049 3.95934
H 18.9381 6.52049 5.40332
Ow 15.5769 18.738 15.0769
H 15.3307 19.6568 14.9693
H 14.7982 18.3228 15.4478
Ow 6.54606 19.0121 1.68616
H 5.64474 19.3335 1.66294
H 6.46711 18.0668 1.55798
Ow 19.0694 13.1336 19.2808
H 18.8789 12.2057 19.1429
H 18.2461 13.5797 19.082
Ow 6.60603 13.9765 10.0997
H 6.27793 14.8749 10.0627
H 5.83761 13.433 9.9254
Ow 24.0522 21.9308 7.78229
H 23.9769 22.6865 8.36486
H 23.5116 22.1564 7.0253
Ow 16.4932 14.8502 1.48489
H 16.7068 15.7591 1.27369
H 15.9303 14.5627 0.766059
Ow 2.91089 2.94563 18.7721
H 3.5799 2.56193 19.3391
H 2.45583 3.57597 19.3305
Ow 6.51494 9.69158 24.4457
H 7.2144 9.79972 25.0901
H 6.96484 9.69225 23.6008
Ow 23.2986 19.9924 24.9086
H 23.5999 20.8659 25.1583
H 23.0136 19.5928 25.7304
Ow 12.5045 13.9248 7.28634
H 12.3368 13.1761 6.71415
H 12.4544 14.6854 6.70727
Ow 12.7713 17.8375 22.6035
H 13.2815 18.6093 22.3583
H 13.3003 17.0964 22.3082
Ow 20.417 0.279634 8.15258
H 20.1843 25.6026 7.27661
H 19.8959 25.3675 8.74406
Ow 16.0895 19.4929 7.28641
H 16.3885 19.9931 8.04583
H 16.7621 19.6409 6.62167
Ow 18.064 20.1321 5.37256
H 18.309 19.9773 4.46028
H 17.7282 21.0284 5.38215
Ow 2.41695 8.07968 3.69166
H 2.0358 7.25346 3.39446
H 3.13322 8.24757 3.07928
Ow 16.4686 0.496477 24.1582
H 17.3183 0.641192 24.5745
H 16.3107 25.1882 24.255
Ow 1.81823 2.65338 5.04494
H 2.4896 3.05668 5.59526
H 1.65657 3.29577 4.35397
Ow 10.6686 21.3167 15.4154
H 9.72495 21.1654 15.4689
H 10.994 20.6091 14.859
Ow 15.1762 13.0239 3.04929
H 15.2769 13.8303 2.54351
H 15.9213 12.4825 2.78861
Ow 24.6781 9.52408 23.5038
H 24.6255 8.98708 22.7131
H 24.035 9.13866 24.0988
Ow 18.4054 6.87593 2.37756
H 19.0232 7.49919 1.99525
H 17.9441 6.50359 1.62603
Ow 1.02702 0.846308 18.2494
H 0.181973 1.29368 18.2048
H 1.65495 1.53928 18.4537
Ow 6.71179 4.7619 7.05117
H 6.71824 3.89756 7.46239
H 5.78993 4.92643 6.85283
Ow 18.7428 10.6064 18.3275
H 17.8599 10.499 17.9737
H 18.9943 9.72885 18.6155
Ow 0.915606 23.2762 6.12943
H 0.308354 22.9418 5.46943
H 0.714877 22.7718 6.9178
Ow 11.9817 0.380359 4.44869
H 11.5302 25.4144 3.85173
H 12.8152 0.566844 4.01672
Ow 8.9997 22.5688 10.9042
H 9.11266 23.3982 10.4398
H 8.08564 22.3301 10.7502
Ow 5.32666 1.77915 2.49173
H 5.20871 2.48369 3.12888
H 4.59916 1.18 2.65904
Ow 15.7145 4.082 10.6468
H 16.0391 3.40508 11.2406
H 16.3725 4.12848 9.95321
Ow 20.7834 13.2329 17.1994
H 20.2069 13.4353 17.9361
H 21.1913 12.3998 17.4357
Ow 12.2722 8.48492 20.6519
H 13.0845 8.21559 21.0808
H 11.5795 8.1879 21.2419
Ow 20.0687 23.5044 20.7245
H 19.7488 24.0405 21.45
H 19.3883 22.8433 20.5964
Ow 22.9694 14.5419 1.53236
H 23.4655 15.0762 0.912118
H 23.6305 14.0037 1.96775
Ow 22.8795 3.57236 6.98948
H 22.8885 4.1932 7.71798
H 22.943 2.71282 7.40589
Ow 5.63835 15.4518 14.0325
H 5.12827 16.2546 14.14
H 6.28157 15.6649 13.3564
Ow 13.9311 4.5745 20.0324
H 13.9923 4.49413 20.9842
H 14.8392 4.55156 19.7307
Ow 19.2461 19.805 14.513
H 18.8467 20.6593 14.677
H 18.8225 19.2178 15.1392
Ow 6.46054 25.5875 14.8117
H 6.25458 24.6731 14.6175
H 6.65147 0.346179 13.9584
Ow 11.4664 13.5431 20.4345
H 11.4984 13.6926 21.3794
H 11.6625 12.6118 20.3322
Ow 15.4099 16.0033 7.0902
H 16.0468 16.3682 7.70459
H 15.4641 16.5722 6.3223
Ow 18.2195 3.49213 21.5348
H 17.5265 3.39684 22.1881
H 18.983 3.78013 22.0351
Ow 24.0345 18.5624 17.9106
H 23.5806 18.6287 18.7507
H 24.7869 17.9979 18.0883
Ow 12.3455 15.3973 5.00675
H 12.3327 15.0528 4.11378
H 12.5002 16.3358 4.89972
Ow 12.2386 22.489 21.1146
H 12.7614 21.7341 21.3847
H 11.6345 22.1404 20.459
Ow 20.6391 1.70663 1.63705
H 21.1039 0.951341 1.27693
H 20.0845 1.3409 2.32624
Ow 16.3713 21.4765 9.25165
H 16.3649 22.1797 8.60223
H 15.4464 21.2991 9.42249
Ow 24.0635 24.3574 9.41781
H 23.612 25.1878 9.26688
H 24.5248 24.4823 10.2472
Ow 1.29917 1.78702 11.3619
H 2.12581 1.90893 11.8288
H 1.51695 1.94466 10.4432
Ow 11.6366 3.27427 2.84714
H 11.4639 3.60451 3.7288
H 10.8289 3.44711 2.36356
Ow 0.9718 17.4251 18.3187
H 1.28153 17.7063 19.1796
H 1.53535 17.8872 17.6982
Ow 20.5227 24.4615 15.554
H 20.8692 24.0318 14.772
H 20.3389 23.7442 16.1606
Ow 4.20124 16.3773 24.4329
H 3.37043 16.3448 24.9072
H 4.10881 15.7216 23.7417
Ow 17.9262 9.38935 0.424622
H 18.762 8.93089 0.511386
H 17.7505 9.39208 25.1145
Ow 22.0767 1.40688 22.2307
H 22.2404 0.565135 21.8054
H 22.9485 1.76645 22.3948
Ow 10.954 1.69059 18.2956
H 11.8588 1.84679 18.5659
H 10.4801 2.47193 18.5805
Ow 16.3208 12.6873 24.8361
H 15.9344 11.9881 25.3634
H 15.5928 13.2818 24.6553
Ow 1.72117 18.094 11.41
H 1.966 18.6968 12.1121
H 2.30087 17.3413 11.5269
Ow 22.3328 21.7849 21.4448
H 22.6578 21.8298 20.5456
H 21.3824 21.8625 21.3606
Ow 20.6547 9.44661 15.9293
H 21.2913 8.8215 15.5825
H 20.2609 8.99799 16.6775
Ow 24.5399 5.24925 3.90782
H 25.3793 4.97908 3.53541
H 24.0476 5.59591 3.16368
Ow 17.2549 7.16477 15.9754
H 16.6924 7.16589 16.7498
H 18.1334 6.99802 16.3171
Ow 22.2411 6.80614 18.8486
H 22.9413 6.15375 18.8653
H 21.781 6.64331 18.0251
Ow 20.2614 8.31898 0.327081
H 20.046 7.59536 25.3695
H 20.375 9.07306 25.3794
Ow 12.4617 15.9999 11.5035
H 12.0095 16.8174 11.7119
H 12.6876 16.0801 10.5768
Ow 9.92065 14.026 12.2714
H 10.6719 14.5202 11.9434
H 9.29972 14.6956 12.5584
Ow 5.93468 7.40116 7.78405
H 6.59698 6.81994 8.15791
H 6.17621 8.27292 8.097
Ow 11.6767 13.866 23.4412
H 11.2359 14.7085 23.3319
H 12.5199 14.0859 23.8373
Ow 17.6979 11.6383 2.18025
H 17.7845 10.8688 1.61756
H 18.1356 11.3906 2.99466
Ow 11.7496 6.07891 19.1597
H 11.9612 6.96806 19.444
H 12.4871 5.54853 19.4614
Ow 20.8206 15.8131 13.0786
H 21.08 16.4511 13.7434
H 20.9028 14.9651 13.5147
Ow 5.5905 21.7809 12.2757
H 5.21437 22.641 12.0886
H 4.87296 21.2861 12.6713
Ow 23.3481 19.833 5.55688
H 22.5163 20.2314 5.81286
H 23.1189 19.235 4.84546
Ow 14.3095 3.3205 2.87479
H 13.3593 3.2405 2.95809
H 14.5338 4.08304 3.40813
Ow 16.3715 6.91841 18.7258
H 16.3264 5.96293 18.6905
H 15.4609 7.19843 18.8188
Ow 0.181174 18.587 3.71238
H 0.910927 18.5864 3.09296
H 25.6256 19.5138 3.86276
Ow 4.8048 11.7964 9.57173
H 5.19273 11.5977 10.4239
H 3.86078 11.7347 9.71751
Ow 4.09723 8.97122 12.4146
H 4.04659 8.42006 11.6336
H 4.5852 8.44531 13.0483
Ow 4.45455 22.5908 16.3569
H 3.61489 22.8137 16.7588
H 4.54354 21.6477 16.4945
Ow 2.72081 2.78562 0.696584
H 2.9234 2.71598 1.62951
H 2.15492 3.5548 0.630651
Ow 18.8565 0.92973 21.2528
H 18.8836 1.88522 21.3032
H 19.7212 0.649033 21.5523
Ow 11.7646 4.94026 8.05717
H 11.3031 4.38847 8.68862
H 11.2964 5.77479 8.08038
Ow 1.81085 10.053 9.13397
H 1.28025 10.7817 9.456
H 2.22441 10.3901 8.33926
Ow 7.99474 6.63222 19.6943
H 8.21567 6.70166 20.623
H 8.7665 6.96791 19.2382
Ow 8.91507 14.0544 18.6125
H 8.92659 13.2471 19.1266
H 9.17385 14.737 19.2317
Ow 20.0573 15.2683 2.83772
H 20.9992 15.1933 2.68434
H 19.9837 15.8328 3.60723
Ow 24.5609 11.191 0.615903
H 24.8825 10.5458 1.24565
H 24.8838 12.0297 0.945383
Ow 21.6536 11.2246 21.7519
H 21.5578 10.2729 21.7142
H 22.3555 11.4199 21.1311
Ow 18.0824 9.79863 14.577
H 18.0573 9.03086 15.1481
H 18.6322 9.53186 13.8402
Ow 1.74889 5.50892 7.28443
H 1.83875 6.42884 7.0356
H 1.41348 5.53437 8.18058
Ow 2.56885 17.7493 2.36329
H 2.94575 18.5952 2.12117
H 2.01035 17.5145 1.62224
Ow 9.36603 1.05545 22.2675
H 8.90663 1.60954 21.6365
H 9.9663 0.532899 21.7357
Ow 17.3039 4.49141 8.33057
H 17.8341 3.6958 8.37663
H 17.6558 4.97125 7.58081
Ow 5.37188 19.572 17.7448
H 6.10944 20.1017 18.0476
H 4.93641 19.2857 18.5477
Ow 2.04365 18.4171 15.268
H 1.11104 18.2985 15.088
H 2.33637 19.0488 14.6111
Ow 13.8156 18.4912 0.239802
H 13.2593 17.7505 25.6293
H 14.3956 18.1448 0.917883
Ow 4.1642 18.4155 19.8687
H 4.69618 17.8085 20.3833
H 3.2742 18.2945 20.1996
Ow 11.9032 18.5006 19.6901
H 11.3852 17.7313 19.4529
H 12.3383 18.2545 20.5064
Ow 17.1819 1.69085 17.5122
H 16.6116 2.32004 17.0705
H 17.8279 1.44612 16.8496
Ow 22.4828 11.1177 16.9498
H 21.854 10.636 16.4123
H 22.6804 10.5263 17.676
Ow 6.25379 20.5006 24.2517
H 6.52344 19.627 24.5351
H 6.78005 20.6727 23.4709
Ow 9.10009 10.7634 23.1632
H 9.18703 9.85233 22.8827
H 9.76041 10.8676 23.8483
Ow 9.4439 24.7714 9.12098
H 10.0878 25.4525 9.31522
H 9.48834 24.6631 8.17097
Ow 1.67478 18.3541 20.8831
H 1.33801 17.6748 21.4675
H 1.11959 19.1148 21.0543
Ow 17.9938 16.046 14.7432
H 18.8281 16.3252 15.1204
H 18.2202 15.3044 14.182
Ow 4.52591 22.7601 7.65501
H 4.58976 21.9393 7.16675
H 3.82305 23.2436 7.22084
Ow 11.4596 10.7259 19.4035
H 11.681 10.8453 18.4799
H 11.7126 9.82304 19.5962
Ow 4.45455 0.4422 10.0307
H 3.89595 0.70299 9.29843
H 5.29654 0.231544 9.62705
Ow 17.3608 8.91495 9.90882
H 17.3289 8.1191 9.37792
H 16.5937 8.85449 10.4782
Ow 18.1366 22.1877 14.9533
H 18.389 22.685 14.1753
H 17.1797 22.2099 14.9523
Ow 16.0358 24.3474 7.10673
H 16.2954 24.4304 6.18916
H 15.1234 24.6363 7.12506
Ow 1.13208 5.07781 9.91989
H 0.944446 5.97987 10.1793
H 2.07319 4.97771 10.0632
Ow 4.36007 15.8905 18.0149
H 4.37635 16.4434 18.7961
H 4.72382 15.0541 18.3052
Ow 20.0042 18.4599 12.2185
H 19.9823 19.0567 12.9666
H 19.6859 17.627 12.5666
Ow 9.04104 1.29913 25.068
H 8.91429 2.20274 25.3572
H 9.37977 1.37788 24.1762
Ow 18.048 18.6845 16.7855
H 18.0864 18.0875 17.5327
H 17.1929 18.5178 16.3889
Ow 24.0596 24.4426 16.5504
H 24.5321 25.1641 16.1351
H 23.8808 23.8305 15.8365
Ow 3.88257 2.34508 12.4317
H 4.00487 1.89642 11.5951
H 3.82511 3.27221 12.2007
Ow 16.5713 4.04144 19.3108
H 16.6283 3.41422 18.59
H 17.2098 3.72909 19.9519
Ow 18.7615 17.6758 22.0318
H 18.8724 18.6244 22.0953
H 18.8819 17.4817 21.1023
Ow 18.4115 14.7982 23.7524
H 18.2436 15.6767 23.4114
H 18.665 14.2869 22.9839
Ow 10.4771 3.94787 11.209
H 9.60817 3.63403 11.4594
H 10.4662 4.88078 11.423
Ow 25.314 24.7883 11.6388
H 0.405443 24.1602 11.6438
H 0.107995 25.6419 11.5546
Ow 0.204413 25.0623 24.5602
H 25.6613 0.3565 24.3862
H 1.1413 25.0264 24.753
Ow 21.3512 10.4203 24.6701
H 21.1676 11.1572 25.2527
H 20.9477 10.6662 23.8376
Ow 22.8835 10.5029 12.174
H 22.1006 9.96087 12.2721
H 23.6123 9.90252 12.3308
Ow 16.5354 25.4559 4.55217
H 17.2954 25.5637 3.98022
H 16.3985 0.691652 4.93507
Ow 3.17978 10.3248 6.68307
H 3.24087 10.9452 5.95667
H 4.0779 10.2412 7.00341
Ow 14.7393 7.30245 0.600842
H 14.1639 6.83502 1.20632
H 15.3942 6.65368 0.342967
Ow 12.8005 24.6695 7.36679
H 12.7131 25.348 8.03623
H 12.2514 24.9733 6.64398
Ow 17.0107 5.6672 12.859
H 17.0885 5.11836 13.6394
H 16.393 5.19923 12.2971
Ow 9.81926 4.23341 18.7262
H 10.4847 4.90672 18.868
H 9.19352 4.36039 19.4393
Ow 12.4191 15.477 18.4275
H 12.115 15.3365 17.5308
H 11.6381 15.3561 18.9675
Ow 9.85065 19.2166 1.61681
H 9.75874 18.6837 2.40662
H 9.05042 19.0483 1.11928
Ow 19.8668 24.9628 5.61419
H 19.5891 25.6018 4.95786
H 20.7089 24.64 5.29358
Ow 8.31954 9.2276 12.2787
H 8.18068 9.30235 13.2228
H 9.23182 9.48679 12.149
Ow 20.3279 6.89868 9.58108
H 20.1772 6.39938 10.3837
H 19.6926 6.54755 8.95711
Ow 4.65254 7.52321 10.2673
H 4.57334 6.60227 10.5159
H 4.97279 7.50165 9.36551
Ow 14.2133 2.04245 8.99666
H 13.333 1.96705 9.36484
H 14.7636 2.29127 9.73934
Ow 21.7417 13.6598 14.4982
H 22.6231 13.2937 14.5718
H 21.3432 13.4999 15.3536
Ow 22.0024 8.96907 9.21768
H 21.2675 8.35679 9.25212
H 22.7629 8.42059 9.02508
Ow 23.9871 3.35812 23.8824
H 24.5332 2.99182 23.1869
H 24.2113 2.8452 24.6589
Ow 18.3918 14.4431 10.2793
H 18.4373 13.4911 10.1911
H 18.5481 14.6057 11.2095
Ow 5.85621 16.6938 10.7009
H 6.73538 16.7015 11.0794
H 5.71383 17.5934 10.4064
Ow 11.2877 7.47234 23.4024
H 12.2345 7.56254 23.2944
H 11.1676 6.58211 23.7331
Ow 21.0273 3.74442 16.6909
H 20.9236 4.67449 16.892
H 21.8847 3.68406 16.2696
Ow 15.0752 21.9101 5.90407
H 15.3706 22.6155 6.47965
H 15.2716 21.1077 6.38761
Ow 8.62781 23.5198 13.5079
H 8.70218 23.2969 12.58
H 7.95773 22.9249 13.8446
Ow 8.96544 13.208 8.65772
H 8.60426 12.7781 7.8825
H 8.19817 13.4639 9.16963
Ow 25.385 9.87214 7.0049
H 25.6 9.1269 6.44399
H 25.583 9.57025 7.89141
Ow 3.86476 8.84215 20.6333
H 3.63909 8.0159 21.0606
H 3.21249 8.93953 19.9396
Ow 23.7613 11.5276 20.1248
H 24.6988 11.6204 20.2942
H 23.6871 10.715 19.6245
Ow 7.97065 1.91112 3.18476
H 8.21647 1.53943 4.03191
H 7.07578 1.60435 3.03867
Ow 11.4175 9.34292 13.4515
H 11.388 9.45865 14.4012
H 11.96 8.56515 13.3212
Ow 12.1248 14.9077 2.13108
H 12.8244 14.6105 1.54934
H 11.6798 15.5973 1.63844
Ow 3.32091 15.848 11.826
H 3.62249 15.2875 12.541
H 4.10833 16.3055 11.5313
Ow 11.2295 16.9024 0.643166
H 10.7145 17.6026 1.04411
H 10.9802 16.9201 25.35
Ow 10.576 17.9913 16.5934
H 11.0065 17.1432 16.4855
H 10.153 18.1546 15.7504
Ow 24.3538 7.6695 8.73895
H 24.0739 6.78265 8.96569
H 24.8987 7.94502 9.47608
Ow 15.5644 10.9482 14.5731
H 15.2141 11.4058 15.3374
H 16.4546 10.7042 14.8266
Ow 21.8182 19.9296 15.1631
H 21.924 20.2548 16.0571
H 20.8776 19.9885 14.996
Ow 15.42 14.1763 12.8077
H 15.5069 14.8439 12.1272
H 15.1104 13.3988 12.343
Ow 2.58643 10.5549 22.4467
H 2.99811 9.88196 21.9046
H 1.82744 10.8413 21.9386
Ow 4.68401 8.54904 1.97641
H 4.59023 8.45773 1.02821
H 5.24735 7.81903 2.23326
Ow 7.14977 25.0482 25.141
H 7.21058 24.8908 24.1988
H 7.84073 25.6851 25.323
Ow 19.4004 20.4072 21.8346
H 19.1821 20.9875 22.5639
H 18.7109 20.5631 21.1892
Ow 21.6206 10.8027 3.40239
H 22.4141 10.3262 3.1584
H 21.8871 11.3504 4.1408
Ow 16.343 0.371621 20.4533
H 17.231 0.69242 20.6108
H 16.2403 25.2714 21.0626
Ow 7.73702 19.2235 5.9274
H 7.74068 19.4051 6.86721
H 6.82597 19.0078 5.7282
Ow 14.7242 11.6969 12.167
H 13.8166 11.4791 11.9546
H 14.7817 11.5866 13.1161
Ow 18.0616 23.1046 5.34446
H 18.8301 23.6384 5.54617
H 17.4177 23.7282 5.00872
Ow 15.4077 16.4384 11.1229
H 14.5443 16.8215 10.9683
H 15.8988 16.6223 10.3221
Ow 10.6682 18.1917 11.8733
H 10.6835 18.424 10.9448
H 9.74367 18.0367 12.0667
Ow 3.82135 3.93977 6.48026
H 4.2433 4.25917 5.68266
H 3.23423 4.6491 6.74173
Ow 9.05224 0.947828 5.36179
H 9.82799 0.754267 4.8355
H 9.29766 1.71595 5.87752
Ow 13.6055 2.21636 18.9576
H 13.7249 3.02872 19.4496
H 13.9212 2.42031 18.0773
Ow 2.01231 21.2246 16.6261
H 2.17466 20.3964 16.1743
H 1.3427 21.0154 17.2773
Ow 14.3379 13.5323 19.9224
H 14.7779 14.0942 19.2845
H 13.4047 13.6782 19.7673
Ow 2.73998 24.4025 25.3496
H 3.4565 23.7698 25.3995
H 2.6566 24.7414 0.610145
Ow 0.483998 16.3749 22.3276
H 0.264666 17.0142 23.0054
H 0.729896 15.5866 22.8117
Ow 14.2897 19.9897 12.4737
H 14.6108 20.6511 13.0866
H 15.0565 19.4511 12.2784
Ow 23.7041 0.605042 5.88037
H 23.5984 1.27307 5.20302
H 24.6357 0.386292 5.85842
Ow 24.214 15.525 25.0029
H 24.5018 16.4175 24.8109
H 23.6325 15.299 24.277
Ow 20.2884 3.79488 10.8277
H 21.1065 3.30552 10.914
H 19.9141 3.49258 10.0002
Ow 23.8296 1.79515 0.689082
H 24.4674 1.20858 1.09574
H 23.1487 1.21282 0.35215
Ow 0.646622 7.71977 10.674
H 0.618122 8.03093 11.5788
H 1.23022 8.33321 10.2276
Ow 20.5579 3.26671 5.70585
H 21.4477 3.42448 6.02143
H 20.3153 4.07664 5.25709
Ow 22.6646 14.4423 22.7984
H 21.8238 14.8977 22.7547
H 23.1293 14.7202 22.009
Ow 9.28379 3.5636 1.4641
H 8.91531 3.07146 2.19776
H 9.02032 4.46942 1.62629
Ow 13.3774 23.0949 25.4439
H 12.9741 23.1693 24.5791
H 14.3077 22.959 25.264
Ow 13.0413 6.87861 12.8466
H 12.5787 6.23942 13.3885
H 12.871 6.59881 11.9472
Ow 13.9714 8.43066 9.5076
H 13.4334 7.66677 9.71574
H 13.7877 8.60948 8.58538
Ow 11.9197 11.4567 11.9459
H 11.9889 10.6083 12.3838
H 11.3827 11.9874 12.5343
Ow 0.842931 6.59318 22.8483
H 0.779582 5.68608 23.1473
H 25.6796 6.7318 22.3322
Ow 5.9509 19.3817 10.3658
H 5.09489 19.4702 9.94674
H 6.0382 20.1697 10.9022
Ow 0.282511 25.087 20.6918
H 0.586306 25.3171 19.8137
H 0.201883 0.295295 21.1453
Ow 21.1201 16.852 23.1959
H 20.8499 16.853 24.1142
H 20.2996 16.8135 22.7044
Ow 23.7109 15.8419 6.934
H 24.1268 16.6878 6.76772
H 23.8889 15.328 6.14628
Ow 3.17956 21.6599 4.25664
H 3.18484 21.2071 3.41334
H 2.28188 21.5642 4.57482
Ow 1.26266 16.2104 0.396031
H 0.340973 16.1942 0.138212
H 1.45637 15.3084 0.651172
Ow 25.0378 17.6855 14.928
H 24.9523 16.7335 14.8751
H 24.5685 17.9245 15.7272
Ow 15.2605 11.8835 9.27646
H 16.0322 12.0343 9.8224
H 15.5929 11.9077 8.37916
Ow 22.3328 12.5471 5.86738
H 21.4969 13.0104 5.81458
H 22.899 13.0018 5.24383
Ow 19.5025 18.6868 8.24608
H 19.8535 19.4201 7.74074
H 20.1914 18.023 8.21576
Ow 14.3966 3.51484 0.219136
H 14.5405 3.46765 1.16428
H 15.2232 3.84449 25.4975
Ow 1.49218 8.11655 6.17497
H 2.17185 8.66991 6.55978
H 1.75941 8.0079 5.26227
Ow 5.75887 10.3258 7.61725
H 5.52261 10.7854 8.42297
H 6.367 10.9168 7.17332
Ow 2.4371 24.3839 17.1397
H 1.7855 23.8603 16.6734
H 1.93007 25.0769 17.5626
Ow 5.88902 11.3448 16.8769
H 5.81518 11.6955 15.9893
H 5.66673 12.0821 17.4455
Ow 9.76578 22.2391 25.5867
H 10.1037 22.9393 25.0283
H 9.75285 21.4666 25.0216
Ow 23.6178 5.28559 13.5453
H 23.536 4.45109 14.007
H 22.8687 5.80035 13.8455
Ow 18.4614 24.5339 2.16743
H 17.9623 23.7274 2.29712
H 19.2782 24.39 2.64528
Ow 5.91789 25.6689 6.45269
H 6.63484 25.3409 5.90986
H 5.44604 0.647123 5.88471
Ow 5.62661 13.6983 6.58495
H 6.25025 12.9723 6.60101
H 6.15504 14.4729 6.77729
Ow 8.24862 18.0179 24.8361
H 8.92261 17.4534 25.2148
H 7.93685 17.538 24.0689
Ow 9.91842 19.8796 21.0478
H 9.61624 20.62 20.5217
H 10.6972 19.5624 20.5906
Ow 4.85266 20.7304 5.9729
H 4.35031 21.084 5.23884
H 4.94442 19.7985 5.77418
Ow 1.08636 4.39512 20.4914
H 0.292283 4.69688 20.0503
H 0.774001 3.77469 21.15
Ow 4.6052 22.3659 25.4138
H 5.21256 21.8194 24.9151
H 4.19859 21.7648 0.407114
Ow 10.0749 6.38355 3.98343
H 9.56048 6.62682 3.21375
H 9.50813 6.59114 4.72633
Ow 13.0215 23.0096 12.8078
H 13.4233 23.8057 12.46
H 13.6966 22.6241 13.3661
Ow 19.5454 6.21628 12.1404
H 19.7929 5.3257 11.8918
H 18.6188 6.15206 12.3719
Ow 6.48249 22.4053 14.6445
H 6.11061 22.0802 13.8246
H 5.73539 22.4648 15.2399
Ow 19.8686 24.9815 18.4995
H 19.7196 24.7384 19.4133
H 19.0585 24.7382 18.0514
Ow 6.79362 5.02497 10.3664
H 5.91831 4.6989 10.5756
H 7.14316 4.39005 9.74119
Ow 8.73663 7.85692 22.3979
H 9.51008 7.64423 22.9202
H 8.04231 7.30834 22.7629
Ow 1.39924 13.7676 23.3016
H 2.14946 14.3016 23.0403
H 1.52689 13.6163 24.2381
Ow 13.9202 25.2745 11.5067
H 13.7379 25.6829 10.6604
H 14.8683 25.1429 11.5105
Ow 10.5682 20.0185 9.50859
H 9.69626 20.1282 9.12933
H 11.1242 20.6165 9.00915
Ow 21.9609 23.6917 13.1259
H 22.2919 24.5898 13.1362
H 21.9188 23.4621 12.1976
Ow 8.42625 17.745 14.6202
H 8.40209 17.4517 13.7093
H 7.98287 18.5933 14.611
Ow 6.0395 10.7434 11.8375
H 6.90269 10.3419 11.7376
H 5.44426 10.0044 11.9634
Ow 5.48875 13.5369 3.75453
H 5.87455 13.6108 4.62742
H 4.95355 14.325 3.66121
Ow 7.15739 22.5808 8.05979
H 7.57037 23.1908 7.44857
H 6.22149 22.6484 7.87074
Ow 16.3019 17.5654 4.62885
H 16.9567 18.2546 4.74028
H 15.5359 18.0171 4.27482
Ow 15.9186 10.4914 17.8584
H 15.2752 9.79141 17.7472
H 15.9639 10.6275 18.8048
Ow 22.3426 15.4905 17.6231
H 21.8412 16.125 18.1353
H 21.7555 14.7402 17.5294
Ow 4.51561 12.2661 22.9354
H 5.24471 11.7192 22.6428
H 3.7494 11.6952 22.8782
Ow 21.0309 16.8842 15.5095
H 21.3395 17.7678 15.7104
H 21.6717 16.3063 15.9239
Ow 22.8751 7.57153 24.876
H 21.9851 7.9186 24.9356
H 23.1435 7.4416 0.154729
Ow 8.97317 5.6489 16.2601
H 9.68506 5.62962 15.6205
H 9.30969 5.15633 17.0087
Ow 16.9175 22.2732 1.96946
H 16.7065 22.6545 1.11721
H 17.0249 21.3384 1.79415
Ow 2.90304 15.7968 15.4684
H 2.64986 16.7197 15.4837
H 3.28648 15.6387 16.331
Ow 13.9369 20.2303 21.4259
H 14.4031 20.4906 22.2204
H 14.6253 20.1133 20.7712
Ow 18.2013 24.3628 9.10798
H 17.7614 24.6585 8.31092
H 17.7224 24.7893 9.81865
Ow 12.5779 9.14305 2.72324
H 12.1583 8.9056 3.55013
H 11.9403 8.89985 2.05202
Ow 8.50067 18.2679 18.6497
H 8.07233 19.1059 18.8245
H 8.84516 18.3552 17.7609
Ow 11.7923 4.51117 5.22513
H 11.2603 5.2919 5.07111
H 12.1127 4.61207 6.12144
Ow 19.6638 17.0408 0.834771
H 20.3281 17.7285 0.790337
H 19.9112 16.517 1.5968
Ow 6.39259 3.30668 0.531183
H 5.99762 2.72598 1.18158
H 7.326 3.3049 0.743246
Ow 13.463 24.1223 19.0091
H 13.5371 23.5046 18.2817
H 13.4071 23.5696 19.7886
Ow 2.81656 24.298 21.8886
H 2.03965 24.4636 21.3546
H 3.54179 24.651 21.3732
Ow 3.76146 16.8206 7.84387
H 4.2874 17.1555 7.11763
H 3.51616 17.6002 8.34212
Ow 20.6227 20.035 17.8946
H 20.6404 20.9778 18.0586
H 19.7366 19.8634 17.5758
Ow 15.4561 17.59 20.1353
H 16.2788 17.186 19.8593
H 15.0517 16.9414 20.7115
Ow 10.5519 24.4371 2.95532
H 11.016 23.6 2.96451
H 10.8112 24.8461 2.12967
Ow 19.773 11.9982 7.94527
H 19.6042 12.8002 7.4507
H 19.0567 11.9514 8.57849
Ow 25.2482 9.42922 17.0697
H 25.3851 8.69577 16.4701
H 0.498985 9.74562 17.2671
Ow 23.6621 19.8355 13.1955
H 22.9662 19.9309 13.8457
H 23.8842 18.9047 13.2164
Ow 16.0119 6.07793 23.2809
H 15.3685 5.38035 23.156
H 16.3928 5.90176 24.1412
Ow 25.3365 18.1359 24.4488
H 0.479637 18.6581 24.6596
H 24.6276 18.7751 24.3781
Ow 0.431857 11.7598 10.8937
H 25.1936 12.0152 11.2029
H 0.843066 11.3429 11.6508
Ow 18.8462 0.358159 25.4913
H 19.1767 1.14291 0.297727
H 18.6708 25.3735 0.572373
Ow 10.8964 8.79966 4.77682
H 10.6918 7.91152 4.48424
H 11.5192 8.67875 5.49355
Ow 2.16817 1.95114 8.78181
H 1.6106 1.4257 8.208
H 2.25449 2.79043 8.32974
Ow 25.6205 0.423073 2.38623
H 25.2705 25.2278 2.71991
H 25.3431 1.07761 3.02723
Ow 17.7917 23.5304 17.4941
H 17.9596 23.0966 16.6575
H 17.8119 22.8237 18.1393
Ow 14.9225 20.2943 23.9725
H 15.5507 20.8876 24.3842
H 14.6817 19.6806 24.6664
Ow 20.2145 12.2593 11.5017
H 20.9368 11.6454 11.6343
H 19.8764 12.4257 12.3816
Ow 7.47836 13.8706 21.6007
H 7.46569 13.6623 22.5348
H 6.92204 14.6454 21.5201
Ow 13.9498 8.45688 17.5627
H 13.9213 7.6733 17.0137
H 13.2162 8.9906 17.2575
Ow 0.47823 12.6335 7.0499
H 0.197126 11.729 6.91189
H 0.123514 13.1121 6.30062
Ow 18.8189 6.39241 21.8629
H 17.8883 6.45224 22.0788
H 19.2464 6.19529 22.6964
Ow 10.0769 3.04275 6.89462
H 10.6441 3.51367 6.2841
H 10.6727 2.4837 7.39326
Ow 11.4305 11.3679 24.6577
H 12.2402 10.8633 24.7345
H 11.6275 12.04 24.0052
Ow 8.37875 10.318 0.728137
H 8.33124 10.3361 1.68399
H 9.0587 9.67293 0.533835
Ow 20.6229 17.4108 18.6086
H 19.7473 17.0261 18.6487
H 20.489 18.2712 18.211
Ow 1.56543 2.42278 15.3465
H 1.22755 2.7683 16.1727
H 1.08417 1.60618 15.2131
Ow 2.63296 12.4909 19.1873
H 2.41387 13.0681 18.4558
H 2.6572 11.6147 18.8027
Ow 25.4764 13.3569 2.12251
H 0.445061 13.9509 1.67077
H 25.4313 13.6957 3.01662
Ow 14.5929 1.52664 14.382
H 14.6822 2.2743 14.973
H 15.3311 1.60835 13.7783
Ow 11.57 14.8776 15.8038
H 11.5357 13.9518 15.5629
H 11.9779 15.3064 15.0515
Ow 3.80408 14.7067 22.3691
H 4.3993 15.0836 21.7211
H 3.98596 13.7673 22.3443
Ow 0.978212 22.012 23.8843
H 1.34999 22.8656 24.1065
H 1.42635 21.7576 23.0777
Ow 0.85943 0.348427 6.43229
H 1.03006 25.0433 6.32661
H 1.28681 0.756795 5.67942
Ow 20.2991 24.3501 23.5477
H 20.1415 23.429 23.755
H 19.7517 24.8326 24.1672
Ow 6.8337 24.2005 4.00403
H 7.78297 24.0798 4.02743
H 6.59391 24.0408 3.09122
Ow 5.9655 16.0787 1.2805
H 5.24863 16.1183 0.64744
H 5.53206 16.0747 2.13393
Ow 9.42037 8.39937 17.4715
H 10.3039 8.76478 17.4257
H 9.44242 7.64389 16.8841
Ow 23.8441 22.6401 25.7256
H 24.7793 22.7007 25.5311
H 23.7866 22.7731 1.04096
Ow 2.79008 6.43225 13.1087
H 3.33788 5.99849 12.4545
H 2.87861 7.3655 12.9152
Ow 17.3507 15.0309 4.70368
H 16.9841 15.908 4.59212
H 17.429 14.6885 3.81326
Ow 11.598 22.037 7.8539
H 12.1398 22.7839 7.59917
H 11.2218 21.7221 7.03202
Ow 16.0429 11.3471 6.71291
H 15.1062 11.2807 6.52747
H 16.4037 10.5069 6.42988
Ow 15.6485 8.18906 5.32931
H 16.38 7.91671 5.88324
H 14.9377 8.37271 5.94358
Ow 15.1446 5.58198 4.79674
H 14.7368 5.11757 5.52764
H 15.1115 6.50445 5.05009
Ow 16.2282 14.214 17.8267
H 16.8138 13.7397 17.2366
H 16.7585 14.9374 18.1609
Ow 1.98408 10.7053 12.7333
H 2.3216 11.3788 13.3238
H 2.64048 10.0092 12.7631
Ow 14.1391 17.7313 17.161
H 13.5719 17.1745 17.6943
H 14.9283 17.8468 17.6902
Ow 22.8995 23.5399 5.70844
H 23.1528 23.4501 4.78975
H 22.9879 24.4753 5.89139
Ow 2.33655 6.29235 18.9438
H 2.10055 7.22 18.9452
H 2.04518 5.96929 19.7964
Ow 18.0543 12.1828 15.8567
H 18.0934 11.2265 15.8716
H 18.8511 12.4626 16.3073
Ow 20.4904 16.9674 4.9685
H 21.2438 17.3415 4.51168