LAMMPS (22 Aug 2018)
####################################################
# Transport properties of KCl in water
#  at 298 K and 1 atm.
#################### SETTING UP ####################
units real
dimension 3
newton on
boundary p p p
atom_style full

#################### VARIABLES ####################
variable Temp equal 298       # Temperature in K
variable Pres equal 1.0       # Pressure in atm.

variable RandomSeed equal 400 # The random seed for velocity
variable tstep equal 2.0      # 2fs
variable Ninptpre equal 10000 # Pre-initialize the NPT ensemble (very small timesteps)
variable Ninpt equal 5000000    # Initialize the NPT ensemble
variable Npnpt equal 5000000  # Production in the NPT ensemble (volume)
variable Ninvtpre equal 10000 # Pre-initialize the NVT ensemble (very small timesteps)
variable Ninvt equal 100000   # Initialize the NVT ensemble
variable Npnvt equal 100000   # Production in the NVT ensemble (energy)
variable Nrun equal 100000000   # production in the NVE ensemble
variable Nf equal 10000       # Nfreq (fix ave/time and thermo)
variable Ne equal  10         # Nevery (fix ave/time)
variable Nr equal ${Nf}/${Ne} # Nrepeat (fix ave/time)
variable Nr equal 10000/${Ne} 
variable Nr equal 10000/10 
variable NBR equal ${Npnpt}/50 # Block averaging for density (NPT)
variable NBR equal 5000000/50 
variable Nd equal ${Npnvt}/10 # Frequency of outputting positions of atoms in the NVT ensemble
variable Nd equal 100000/10 

variable nb equal 10          # Number of blocks (fix ordern)
variable nbe equal 20         # Number of block elements (fix ordern)
variable Nvisc equal 5        # Nevery for viscosity (fix ordern: sample data at (Nvisc*2))
variable Ncond equal 5        # Nevery for Tconductivity (fix ordern: sample data at (Ncond*2))
variable Ndiff equal 1000     # Nevery for diffusivity (fix ordern: sample data at (Ndiff))
variable Nwrit equal 100000   # Nwrite for transport properties (fix ordern: write every (Nwrit))

variable Nrdfe equal 100      # Nevery for RDF (fix ave/time)
variable Nrdfw equal 1000     # Nwrite for RDF (compute rdf/ext: write every (Nrdfw*Nrdfe))
variable binnum equal 2000    # Number of bins for RDF

#################### ATOM DEFINITION and FORCEFIELD ####################
read_data ./data.lmp                     # read the positions
  orthogonal box = (0 0 0) to (33.6962 33.6962 33.6962)
  4 by 4 by 8 MPI processor grid
  reading atoms ...
  3152 atoms
  scanning bonds ...
  2 = max bonds/atom
  scanning angles ...
  1 = max angles/atom
  reading bonds ...
  2000 bonds
  reading angles ...
  1000 angles
  2 = max # of 1-2 neighbors
  1 = max # of 1-3 neighbors
  1 = max # of 1-4 neighbors
  2 = max # of special neighbors
include ./forcefield.data                  # read the force field
#--------INTERMOLECULAR POTENTIAL -------------------#
# ---------------Developed for NaCl in water (tip4p/2005) system-----

mass 1 15.9994 # Ow
mass 2 1.00794 # Hw
mass 3 39.0983 # K
mass 4 35.4527 # Cl

pair_style lj/cut/tip4p/long 1 2 1 1 0.1546 10.0

kspace_style pppm/tip4p 1.0e-5
pair_modify tail yes # ATC i

#-----------------Combinations----------------------------
# atomtype atomtype epsilon sigma

pair_coeff 1 1 0.1851 3.1589     # Ow-Ow
pair_coeff 1 2 0.0000 0.0000     # Ow-Hw
pair_coeff 1 3 0.3347 2.89540     # Ow-K
pair_coeff 1 4 0.0148 4.07631     # Ow-Cl

pair_coeff 2 2 0.0000 0.0000     # Hw-Hw
pair_coeff 2 3 0.0000 0.0000     # Hw-K
pair_coeff 2 4 0.0000 0.0000     # Hw-Cl

pair_coeff 3 3 0.4746 2.30140     # K-K
pair_coeff 3 4 0.3346 3.41700     # K-Cl

pair_coeff 4 4 0.0184 4.69906     # Cl-Cl

bond_style  harmonic
bond_coeff 1 1000 0.9572          # Ow-Hw

angle_style harmonic
angle_coeff 1 100 104.52          # H-O-H

#dihedral_style none
#improper_style none

set type 1 charge -1.1128        # O
  1000 settings made for charge
set type 2 charge +0.5564        # OH
  2000 settings made for charge
set type 3 charge +0.7500        # K
  76 settings made for charge
set type 4 charge -0.7500        # Cl
  76 settings made for charge


#################### INITIALIZATION ####################
# groups for the central atoms of water (O)
group wat type 1      # The Oxygen of WATER molecules
1000 atoms in group wat
group K type 3
76 atoms in group K
group Cl type 4
76 atoms in group Cl

# neigbor lists
neighbor 2.0 bin
neigh_modify every 1 delay 0 check yes

# velocity-Verlet integrator
run_style verlet

# minimizing the system using the conjugate gradient method
min_style cg
min_modify dmax 0.05
minimize 1.0e-6 1.0e-6 1000 10000
PPPM initialization ...
  extracting TIP4P info from pair style
  using 12-bit tables for long-range coulomb (../kspace.cpp:321)
  G vector (1/distance) = 0.311414
  grid = 32 32 32
  stencil order = 5
  estimated absolute RMS force accuracy = 0.0032261
  estimated relative force accuracy = 9.71531e-06
  using double precision FFTs
  3d grid and FFT values/proc = 2475 256
Neighbor list info ...
  update every 1 steps, delay 0 steps, check yes
  max neighbors/atom: 2000, page size: 100000
  master list distance cutoff = 12.3092
  ghost atom cutoff = 12.3092
  binsize = 6.1546, bins = 6 6 6
  1 neighbor lists, perpetual/occasional/extra = 1 0 0
  (1) pair lj/cut/tip4p/long, perpetual
      attributes: half, newton on
      pair build: half/bin/newton
      stencil: half/bin/3d/newton
      bin: standard
Per MPI rank memory allocation (min/avg/max) = 8.192 | 8.248 | 8.723 Mbytes
Step Temp E_pair E_mol TotEng Press 
       0            0    953.99707 3.2938476e-05    953.99711    26411.001 
    1000            0   -21619.888    371.68467   -21248.203   -4461.4062 
Loop time of 1.41465 on 128 procs for 1000 steps with 3152 atoms

98.9% CPU use with 128 MPI tasks x no OpenMP threads

Minimization stats:
  Stopping criterion = max iterations
  Energy initial, next-to-last, final = 
         953.997106204     -21248.1081974     -21248.2029144
  Force two-norm initial, final = 1809.72 21.4545
  Force max component initial, final = 225.95 2.9606
  Final line search alpha, max atom move = 0.0105836 0.0313339
  Iterations, force evaluations = 1000 1778

MPI task timing breakdown:
Section |  min time  |  avg time  |  max time  |%varavg| %total
---------------------------------------------------------------
Pair    | 0.1168     | 0.35098    | 0.55601    |  13.9 | 24.81
Bond    | 0.00081852 | 0.0016299  | 0.0022603  |   0.6 |  0.12
Kspace  | 0.5868     | 0.80234    | 1.0287     |   9.3 | 56.72
Neigh   | 0.0066444  | 0.0067777  | 0.006921   |   0.1 |  0.48
Comm    | 0.15163    | 0.17167    | 0.19564    |   2.7 | 12.13
Output  | 9.1091e-05 | 9.2782e-05 | 9.5669e-05 |   0.0 |  0.01
Modify  | 0          | 0          | 0          |   0.0 |  0.00
Other   |            | 0.08116    |            |       |  5.74

Nlocal:    24.625 ave 36 max 5 min
Histogram: 1 1 7 3 11 23 39 16 20 7
Nghost:    2563.66 ave 2681 max 2499 min
Histogram: 15 42 25 12 2 0 0 10 13 9
Neighs:    7984.47 ave 13449 max 1513 min
Histogram: 2 6 6 10 25 32 22 16 6 3

Total # of neighbors = 1022012
Ave neighs/atom = 324.242
Ave special neighs/atom = 1.90355
Neighbor list builds = 21
Dangerous builds = 0
reset_timestep 0

# initializing velocities
velocity all create ${Temp} ${RandomSeed}
velocity all create 298 ${RandomSeed}
velocity all create 298 400

# rate of writing thermal properties to the log file
thermo ${Nf}
thermo 10000

#################### 1) Initialize the NPT ensemble ####################
# applying the shake algorithm for rigid molecules and the NPT solver
fix constrain all shake 1.0e-6 1000 0 b 1 a 1
  0 = # of size 2 clusters
  0 = # of size 3 clusters
  0 = # of size 4 clusters
  1000 = # of frozen angles
fix integrate all npt temp ${Temp} ${Temp} 10.0 iso ${Pres} ${Pres} 100.0
fix integrate all npt temp 298 ${Temp} 10.0 iso ${Pres} ${Pres} 100.0
fix integrate all npt temp 298 298 10.0 iso ${Pres} ${Pres} 100.0
fix integrate all npt temp 298 298 10.0 iso 1 ${Pres} 100.0
fix integrate all npt temp 298 298 10.0 iso 1 1 100.0


# Initializing the whole system with very small timesteps in the NPT ensemble
timestep 0.001
run ${Ninptpre}
run 10000
PPPM initialization ...
  extracting TIP4P info from pair style
  using 12-bit tables for long-range coulomb (../kspace.cpp:321)
  G vector (1/distance) = 0.311414
  grid = 32 32 32
  stencil order = 5
  estimated absolute RMS force accuracy = 0.0032261
  estimated relative force accuracy = 9.71531e-06
  using double precision FFTs
  3d grid and FFT values/proc = 2475 256
Per MPI rank memory allocation (min/avg/max) = 7.943 | 8.082 | 8.207 Mbytes
Step Temp E_pair E_mol TotEng Press Volume 
       0    436.54021   -21619.888            0   -18820.913   -826241.43    38259.716 
   10000    177.69277   -20020.625            0   -18881.308    1487.9933    38088.558 
Loop time of 9.38099 on 128 procs for 10000 steps with 3152 atoms

Performance: 0.092 ns/day, 260.583 hours/ns, 1065.985 timesteps/s
99.4% CPU use with 128 MPI tasks x no OpenMP threads

MPI task timing breakdown:
Section |  min time  |  avg time  |  max time  |%varavg| %total
---------------------------------------------------------------
Pair    | 0.43041    | 2.3246     | 4.0554     |  43.7 | 24.78
Bond    | 0.0009469  | 0.0011778  | 0.0036717  |   0.8 |  0.01
Kspace  | 3.062      | 4.8548     | 6.692      |  30.4 | 51.75
Neigh   | 0          | 0          | 0          |   0.0 |  0.00
Comm    | 0.81825    | 0.93938    | 1.0861     |   6.8 | 10.01
Output  | 8.4478e-05 | 8.6694e-05 | 8.9097e-05 |   0.0 |  0.00
Modify  | 1.0796     | 1.1554     | 1.2052     |   2.6 | 12.32
Other   |            | 0.1054     |            |       |  1.12

Nlocal:    24.625 ave 36 max 5 min
Histogram: 1 1 7 3 11 24 38 16 20 7
Nghost:    2562.77 ave 2681 max 2497 min
Histogram: 16 39 27 12 2 0 0 10 13 9
Neighs:    7984.71 ave 13438 max 1516 min
Histogram: 2 6 6 9 26 32 23 15 6 3

Total # of neighbors = 1022043
Ave neighs/atom = 324.252
Ave special neighs/atom = 1.90355
Neighbor list builds = 0
Dangerous builds = 0
timestep 0.01
run ${Ninptpre}
run 10000
PPPM initialization ...
  extracting TIP4P info from pair style
  using 12-bit tables for long-range coulomb (../kspace.cpp:321)
  G vector (1/distance) = 0.311521
  grid = 32 32 32
  stencil order = 5
  estimated absolute RMS force accuracy = 0.00321181
  estimated relative force accuracy = 9.67226e-06
  using double precision FFTs
  3d grid and FFT values/proc = 2475 256
Per MPI rank memory allocation (min/avg/max) = 7.943 | 8.084 | 8.207 Mbytes
Step Temp E_pair E_mol TotEng Press Volume 
   10000    177.69277   -20020.625            0   -18881.308    -58174.44    38088.558 
   20000    302.83737   -18753.018            0   -16811.309   -883.70432    38880.017 
Loop time of 9.28586 on 128 procs for 10000 steps with 3152 atoms

Performance: 0.930 ns/day, 25.794 hours/ns, 1076.907 timesteps/s
99.4% CPU use with 128 MPI tasks x no OpenMP threads

MPI task timing breakdown:
Section |  min time  |  avg time  |  max time  |%varavg| %total
---------------------------------------------------------------
Pair    | 0.47837    | 2.2887     | 3.8211     |  42.6 | 24.65
Bond    | 0.00094578 | 0.001163   | 0.0025679  |   0.6 |  0.01
Kspace  | 3.187      | 4.7835     | 6.5317     |  29.7 | 51.51
Neigh   | 0.0008808  | 0.00091538 | 0.00094155 |   0.0 |  0.01
Comm    | 0.80284    | 0.94086    | 1.0837     |   6.7 | 10.13
Output  | 8.0511e-05 | 8.3056e-05 | 8.587e-05  |   0.0 |  0.00
Modify  | 1.091      | 1.1626     | 1.2191     |   2.6 | 12.52
Other   |            | 0.108      |            |       |  1.16

Nlocal:    24.625 ave 38 max 6 min
Histogram: 1 2 5 7 16 39 30 19 7 2
Nghost:    2535.12 ave 2637 max 2473 min
Histogram: 14 43 19 15 5 0 0 3 13 16
Neighs:    7861.86 ave 12859 max 1786 min
Histogram: 2 3 9 11 21 32 22 13 11 4

Total # of neighbors = 1006318
Ave neighs/atom = 319.263
Ave special neighs/atom = 1.90355
Neighbor list builds = 3
Dangerous builds = 0
timestep 0.1
run ${Ninptpre}
run 10000
PPPM initialization ...
  extracting TIP4P info from pair style
  using 12-bit tables for long-range coulomb (../kspace.cpp:321)
  G vector (1/distance) = 0.31103
  grid = 32 32 32
  stencil order = 5
  estimated absolute RMS force accuracy = 0.00327793
  estimated relative force accuracy = 9.87137e-06
  using double precision FFTs
  3d grid and FFT values/proc = 2475 256
Per MPI rank memory allocation (min/avg/max) = 7.943 | 8.088 | 8.207 Mbytes
Step Temp E_pair E_mol TotEng Press Volume 
   20000    302.83737   -18753.018            0   -16811.309    -15205.63    38880.017 
   30000    290.88501   -18867.833            0   -17002.759    120.62278    34578.435 
Loop time of 9.57798 on 128 procs for 10000 steps with 3152 atoms

Performance: 9.021 ns/day, 2.661 hours/ns, 1044.061 timesteps/s
99.4% CPU use with 128 MPI tasks x no OpenMP threads

MPI task timing breakdown:
Section |  min time  |  avg time  |  max time  |%varavg| %total
---------------------------------------------------------------
Pair    | 1.2746     | 2.4746     | 3.465      |  29.2 | 25.84
Bond    | 0.00096386 | 0.0011871  | 0.0035889  |   0.8 |  0.01
Kspace  | 3.6927     | 4.7166     | 5.9096     |  21.2 | 49.24
Neigh   | 0.014278   | 0.014545   | 0.014814   |   0.1 |  0.15
Comm    | 0.87636    | 1.0128     | 1.1403     |   6.3 | 10.57
Output  | 8.7183e-05 | 9.0337e-05 | 9.4457e-05 |   0.0 |  0.00
Modify  | 1.1468     | 1.2394     | 1.3031     |   3.0 | 12.94
Other   |            | 0.1187     |            |       |  1.24

Nlocal:    24.625 ave 33 max 14 min
Histogram: 2 3 9 11 17 31 22 24 5 4
Nghost:    2777.37 ave 2819 max 2748 min
Histogram: 7 2 30 32 22 16 6 6 5 2
Neighs:    8756.26 ave 12487 max 5103 min
Histogram: 5 7 11 16 27 20 23 10 7 2

Total # of neighbors = 1120801
Ave neighs/atom = 355.584
Ave special neighs/atom = 1.90355
Neighbor list builds = 48
Dangerous builds = 0
timestep 0.2
run ${Ninptpre}
run 10000
PPPM initialization ...
  extracting TIP4P info from pair style
  using 12-bit tables for long-range coulomb (../kspace.cpp:321)
  G vector (1/distance) = 0.309198
  grid = 30 30 30
  stencil order = 5
  estimated absolute RMS force accuracy = 0.00389522
  estimated relative force accuracy = 1.17303e-05
  using double precision FFTs
  3d grid and FFT values/proc = 2475 256
Per MPI rank memory allocation (min/avg/max) = 7.948 | 8.162 | 8.217 Mbytes
Step Temp E_pair E_mol TotEng Press Volume 
   30000    290.88501   -18867.821            0   -17002.747   -4498.4736    34578.435 
   40000    301.18465   -19096.216            0   -17165.104   -351.82844    33983.415 
Loop time of 9.46365 on 128 procs for 10000 steps with 3152 atoms

Performance: 18.259 ns/day, 1.314 hours/ns, 1056.675 timesteps/s
99.5% CPU use with 128 MPI tasks x no OpenMP threads

MPI task timing breakdown:
Section |  min time  |  avg time  |  max time  |%varavg| %total
---------------------------------------------------------------
Pair    | 1.8957     | 2.6555     | 3.7714     |  21.7 | 28.06
Bond    | 0.0010183  | 0.0012568  | 0.0022344  |   0.6 |  0.01
Kspace  | 3.293      | 4.3889     | 5.1605     |  16.9 | 46.38
Neigh   | 0.03016    | 0.030789   | 0.031543   |   0.3 |  0.33
Comm    | 0.95762    | 1.0734     | 1.209      |   5.5 | 11.34
Output  | 8.1001e-05 | 8.4188e-05 | 8.6693e-05 |   0.0 |  0.00
Modify  | 0.96015    | 1.1685     | 1.2629     |   6.5 | 12.35
Other   |            | 0.1453     |            |       |  1.54

Nlocal:    24.625 ave 31 max 16 min
Histogram: 3 2 11 8 24 17 19 15 17 12
Nghost:    2821.91 ave 2860 max 2776 min
Histogram: 2 2 6 19 21 27 24 15 9 3
Neighs:    8908.62 ave 12540 max 5474 min
Histogram: 2 12 13 19 24 19 20 9 6 4

Total # of neighbors = 1140304
Ave neighs/atom = 361.772
Ave special neighs/atom = 1.90355
Neighbor list builds = 97
Dangerous builds = 0
timestep 0.5
run ${Ninptpre}
run 10000
PPPM initialization ...
  extracting TIP4P info from pair style
  using 12-bit tables for long-range coulomb (../kspace.cpp:321)
  G vector (1/distance) = 0.309617
  grid = 30 30 30
  stencil order = 5
  estimated absolute RMS force accuracy = 0.00382858
  estimated relative force accuracy = 1.15296e-05
  using double precision FFTs
  3d grid and FFT values/proc = 2475 256
Per MPI rank memory allocation (min/avg/max) = 7.949 | 8.194 | 8.217 Mbytes
Step Temp E_pair E_mol TotEng Press Volume 
   40000    301.18465   -19096.217            0   -17165.104   -2114.8965    33983.415 
   50000    300.58261   -19035.454            0   -17108.202   -92.499302    33973.643 
Loop time of 9.65415 on 128 procs for 10000 steps with 3152 atoms

Performance: 44.748 ns/day, 0.536 hours/ns, 1035.824 timesteps/s
99.4% CPU use with 128 MPI tasks x no OpenMP threads

MPI task timing breakdown:
Section |  min time  |  avg time  |  max time  |%varavg| %total
---------------------------------------------------------------
Pair    | 2.0438     | 2.6878     | 3.5836     |  19.6 | 27.84
Bond    | 0.00095727 | 0.0011806  | 0.0021298  |   0.6 |  0.01
Kspace  | 3.5466     | 4.4405     | 5.0648     |  15.3 | 46.00
Neigh   | 0.075834   | 0.0773     | 0.079022   |   0.4 |  0.80
Comm    | 0.98942    | 1.1054     | 1.2303     |   5.4 | 11.45
Output  | 8.3516e-05 | 8.5925e-05 | 0.00010012 |   0.0 |  0.00
Modify  | 0.995      | 1.1966     | 1.2901     |   6.3 | 12.39
Other   |            | 0.1452     |            |       |  1.50

Nlocal:    24.625 ave 35 max 15 min
Histogram: 3 1 6 21 31 32 22 9 2 1
Nghost:    2830.3 ave 2862 max 2803 min
Histogram: 5 12 15 27 21 10 14 12 7 5
Neighs:    8933.14 ave 13488 max 5214 min
Histogram: 2 7 13 29 29 24 14 7 2 1

Total # of neighbors = 1143442
Ave neighs/atom = 362.767
Ave special neighs/atom = 1.90355
Neighbor list builds = 240
Dangerous builds = 0
reset_timestep 0

# continuing the initialization with the final value of timestep
unfix integrate
fix integrate all npt temp ${Temp} ${Temp} 100.0 iso ${Pres} ${Pres} 1000.0
fix integrate all npt temp 298 ${Temp} 100.0 iso ${Pres} ${Pres} 1000.0
fix integrate all npt temp 298 298 100.0 iso ${Pres} ${Pres} 1000.0
fix integrate all npt temp 298 298 100.0 iso 1 ${Pres} 1000.0
fix integrate all npt temp 298 298 100.0 iso 1 1 1000.0
#fix integrate all rigid/npt/small molecule temp ${Temp} ${Temp} 100.0 iso ${Pres} ${Pres} 1000.0

timestep ${tstep}
timestep 2
run ${Ninpt}
run 5000000
PPPM initialization ...
  extracting TIP4P info from pair style
  using 12-bit tables for long-range coulomb (../kspace.cpp:321)
  G vector (1/distance) = 0.309624
  grid = 30 30 30
  stencil order = 5
  estimated absolute RMS force accuracy = 0.00382748
  estimated relative force accuracy = 1.15264e-05
  using double precision FFTs
  3d grid and FFT values/proc = 2475 256
Per MPI rank memory allocation (min/avg/max) = 7.954 | 8.208 | 8.217 Mbytes
Step Temp E_pair E_mol TotEng Press Volume 
       0    300.58261   -19035.454            0   -17108.202    600.79826    33973.643 
   10000    284.42454   -19093.453            0   -17269.802    361.31288    33611.358 
   20000    302.42978   -19134.259            0   -17195.163    494.51512    33673.104 
   30000    303.15585   -19013.678            0   -17069.927   -340.35227    34056.814 
   40000    296.62025   -19044.814            0   -17142.967   -54.177081    34190.888 
   50000    293.67761   -19114.475            0   -17231.495   -77.805159    33835.555 
   60000     295.1954   -19151.005            0   -17258.294    718.46398     33918.26 
   70000    303.60629   -19067.465            0   -17120.826     582.6531    33536.538 
   80000    306.32105   -19033.674            0   -17069.628    1013.5856    33832.302 
   90000    290.84723   -19103.297            0   -17238.465   -662.42202    34214.658 
  100000    298.10432   -19138.641            0   -17227.279   -163.67014    33591.331 
  110000    290.63555   -19074.665            0   -17211.191   -65.146392     34122.07 
  120000    304.91065   -18979.627            0   -17024.624    351.63802     33983.98 
  130000    307.32407   -19072.328            0   -17101.852   -19.861959    33954.622 
  140000    297.91241   -19208.639            0   -17298.507   -388.57882    33510.574 
  150000    306.05749   -19076.087            0   -17113.731   -557.91788     34171.38 
  160000    294.37422   -19168.911            0   -17281.465   -268.51136    33843.536 
  170000    296.63276   -19030.838            0   -17128.911   -796.95212    34408.896 
  180000     293.1382    -19096.52            0   -17216.999    386.04136     33613.56 
  190000    297.53109   -19108.263            0   -17200.576    430.35118     33757.72 
  200000     295.7296   -19034.464            0   -17138.328   -217.27925    34248.814 
  210000    304.65416   -19041.011            0   -17087.653     739.7284     33948.64 
  220000    296.40291   -19014.444            0   -17113.991     173.4542    34187.027 
  230000    290.61157   -19137.582            0   -17274.261    605.79112    33860.755 
  240000    302.15734   -19194.533            0   -17257.184   -284.23041    33925.025 
  250000    293.90233   -19120.742            0   -17236.322    101.13005    33680.611 
  260000    298.29739    -19059.81            0    -17147.21    309.34337    33767.919 
  270000    297.26727    -19043.07            0   -17137.075    454.82109    33680.597 
  280000    299.86229   -19067.679            0   -17145.046   -865.16365    34012.926 
  290000     302.0443   -19106.743            0   -17170.119    -163.2495    34159.811 
  300000    303.87146   -19077.784            0   -17129.444     -460.343    34276.705 
  310000    303.49208   -19133.287            0    -17187.38    638.41695    33547.997 
  320000    288.82348   -19238.399            0   -17386.543    326.78522    33528.073 
  330000    300.91965   -19118.319            0   -17188.905    21.939591    33418.712 
  340000    302.98572   -19090.206            0   -17147.546    48.075636     33798.59 
  350000    307.61042   -19086.231            0   -17113.919   -357.91812    34185.215 
  360000    308.17643   -19107.482            0   -17131.541    345.89141    34283.857 
  370000    295.91364   -19132.992            0   -17235.676   -561.30531    33699.249 
  380000    303.02072   -19171.072            0   -17228.187    330.62676    34026.442 
  390000    297.91298   -19074.509            0   -17164.373    808.59672    33525.451 
  400000    298.56332   -19050.572            0   -17136.267   -232.77649    33891.177 
  410000    300.63127   -19104.947            0   -17177.383     694.1731    33611.123 
  420000     308.0244   -19137.192            0   -17162.225    957.55077    33396.948 
  430000    303.29749   -19054.829            0    -17110.17   -247.11443     34257.64 
  440000    297.89513   -19106.729            0   -17196.708    320.87996    33992.639 
  450000    298.10377   -19136.064            0   -17224.705    617.85671    33753.532 
  460000    299.08787   -19109.885            0   -17192.217    254.37943    33735.059 
  470000    306.56782   -19025.245            0   -17059.617   -472.67143    34356.303 
  480000    307.07474   -19114.013            0   -17145.135   -189.82009    33715.515 
  490000     295.0766   -19127.005            0   -17235.056     210.0429    33831.946 
  500000    301.49855   -19059.019            0   -17125.893   -179.18933    33491.944 
  510000     293.2875   -19083.961            0   -17203.483   -258.66871    33809.034 
  520000    307.48522   -19078.834            0   -17107.324    537.23337    33782.406 
  530000    298.06227   -19060.046            0   -17148.954    13.655536    33661.609 
  540000    303.74589   -19076.735            0   -17129.201    266.39605    33564.773 
  550000     295.6671   -19068.272            0   -17172.536   -196.69767    33784.183 
  560000    308.72044   -19008.126            0   -17028.696     -250.642    34012.162 
  570000    293.70481   -19145.333            0    -17262.18   -378.27314    33737.564 
  580000    298.42085    -19107.96            0   -17194.569     557.4984    33561.889 
  590000    296.67873   -19064.117            0   -17161.895    109.05783    33924.195 
  600000     297.1101    -19102.09            0   -17197.102    727.22299    33460.456 
  610000    309.23656   -19136.988            0   -17154.249   -686.72669    34322.578 
  620000    299.33658   -19227.517            0   -17308.254   -252.12939    33826.107 
  630000    289.86681   -19063.863            0   -17205.318    178.59319    34291.089 
  640000    288.11739    -19112.94            0   -17265.612   -237.43171     33848.97 
  650000    300.52952   -19125.475            0   -17198.563    37.984849     33824.68 
  660000     300.0386   -19059.087            0   -17135.323      -143.19     33814.54 
  670000    294.77366    -19141.32            0   -17251.313   -587.19301    34285.586 
  680000    293.89826   -18958.002            0   -17073.608    202.27512    34039.342 
  690000    296.98713    -19027.96            0   -17123.761   -682.73948    34309.488 
  700000    297.66567   -19010.201            0   -17101.651   -110.45765     34192.59 
  710000    293.16267   -19141.328            0    -17261.65    127.10669    33868.969 
  720000    286.86427   -19098.894            0     -17259.6   -357.33574    33732.202 
  730000    300.55406   -19095.172            0   -17168.103   -620.07795    33557.045 
  740000    300.52184   -19001.474            0   -17074.611   -905.07872     34082.45 
  750000    307.34472   -19010.365            0   -17039.756    245.23718    33683.356 
  760000     295.8454   -19107.593            0   -17210.715    380.42391    33597.289 
  770000    295.53463   -18997.901            0   -17103.015    14.075904    34073.095 
  780000    298.59913   -19043.168            0   -17128.633    394.66388    33870.278 
  790000    300.30583   -18967.039            0   -17041.561    331.60761    34053.235 
  800000    295.17917   -19119.583            0   -17226.976   -52.035175    34024.368 
  810000    299.44457   -19018.789            0   -17098.834   -155.84288    33889.959 
  820000    300.65483   -19069.025            0    -17141.31   -79.770093    34106.455 
  830000    301.25712   -19086.808            0   -17155.231   -479.63468    34031.173 
  840000    294.70216   -19067.769            0    -17178.22    700.11882    33567.356 
  850000    297.99924    -19128.73            0   -17218.041    72.767387     33804.17 
  860000    303.04952   -19125.533            0   -17182.463   -390.65851    33762.258 
  870000    293.56158   -19122.312            0   -17240.076   -454.68482    34012.225 
  880000    299.60448    -19061.41            0    -17140.43    320.82216    33764.739 
  890000    301.78557   -19065.974            0   -17131.009    280.77286    33590.292 
  900000    293.78366   -19076.366            0   -17192.706   -277.95248    33729.032 
  910000    306.82042   -19120.539            0   -17153.292    775.18252    33444.421 
  920000    303.33442    -19090.42            0   -17145.524   -95.973252    34026.794 
  930000    294.81079    -19045.62            0   -17155.375   -87.181093    33992.559 
  940000    299.36899   -19086.433            0   -17166.962   -811.21136    34388.988 
  950000    294.66244   -19062.702            0   -17173.408    313.75547     33712.75 
  960000    298.34647   -19084.953            0   -17172.039    265.01211    34121.161 
  970000    292.86218   -19065.491            0    -17187.74    162.84976    34250.672 
  980000    299.16585   -19042.386            0   -17124.218   -1074.1425    34182.023 
  990000    301.43792   -19046.016            0    -17113.28    84.304561     33791.96 
 1000000    302.67488   -19136.563            0   -17195.896   -287.90671    34070.012 
 1010000    301.16463   -19111.046            0   -17180.062    363.71892    33892.776 
 1020000    298.16237   -19166.367            0   -17254.633     -662.201    34034.338 
 1030000    299.15354   -19043.578            0   -17125.488   -716.56197    33781.762 
 1040000    296.87514   -19087.831            0    -17184.35    178.67123    33511.012 
 1050000    298.56655    -19087.36            0   -17173.034   -266.20589    34027.932 
 1060000     296.9512   -19109.591            0   -17205.623   -91.429247    33575.322 
 1070000    293.98986    -19058.12            0   -17173.139    720.20973    34028.934 
 1080000    307.01208   -19108.501            0   -17140.025   -297.36134    34142.546 
 1090000    295.61442   -19079.475            0   -17184.078    363.81589    34119.267 
 1100000     301.9439   -19186.696            0   -17250.715    506.47527    33652.814 
 1110000    301.00273   -19137.118            0   -17207.172    314.75111    33563.701 
 1120000    304.12396   -19201.668            0    -17251.71    827.10403    33555.644 
 1130000    294.13234   -19084.125            0    -17198.23   -197.51219    33520.934 
 1140000    299.68762   -19072.481            0   -17150.967   -403.56645    34119.981 
 1150000    292.64426   -19082.329            0   -17205.975   -259.04465    33839.455 
 1160000     303.0255   -19108.316            0   -17165.401    87.548466    33886.222 
 1170000    297.88962   -18982.842            0   -17072.856    91.626794    33797.826 
 1180000    306.97073   -19192.139            0   -17223.927    253.02993    33727.193 
 1190000    302.66704   -19043.261            0   -17102.643   -510.42143    34401.343 
 1200000    290.77124   -19090.376            0   -17226.032    808.50049    33884.145 
 1210000    301.40833   -19071.456            0   -17138.909    636.82666    33964.547 
 1220000    298.31878    -19033.07            0   -17120.332   -84.606468    33847.422 
 1230000    305.67447   -19026.642            0   -17066.742   -682.19106    34102.768 
 1240000    303.94784   -19069.826            0   -17120.997   -456.81133    33681.832 
 1250000     301.5051   -19145.119            0   -17211.952    281.99574    33758.417 
 1260000    294.64575   -18990.673            0   -17101.486    -235.0497    33987.295 
 1270000    293.56326   -18973.887            0   -17091.641   -32.542347    34024.496 
 1280000    296.26093   -19058.657            0   -17159.114     186.6175    33286.551 
 1290000     293.1264   -19075.134            0   -17195.689   -39.874214    33921.425 
 1300000     291.4085   -18978.602            0   -17110.172   -638.80629    34111.311 
 1310000    306.41259   -19098.339            0   -17133.706    663.94447    33858.574 
 1320000    302.49989   -19078.272            0   -17138.727    363.91145    34199.043 
 1330000    295.69215   -19132.813            0   -17236.917    351.84096     33574.26 
 1340000    295.14678   -19094.111            0   -17201.712    291.38013    33716.139 
 1350000    300.35569   -19177.044            0   -17251.247    34.519409    34167.301 
 1360000    298.81814   -19076.826            0   -17160.887    425.35703    33456.772 
 1370000    298.33605   -19113.992            0   -17201.144   -366.52984    34159.936 
 1380000    295.46824   -19205.953            0   -17311.493   -52.098715    34023.117 
 1390000    296.90751   -19028.357            0   -17124.668   -595.35867    33875.913 
 1400000    299.81569   -19023.258            0   -17100.923    223.37049    34051.251 
 1410000    295.96464   -19088.198            0   -17190.555    -282.2626    33851.084 
 1420000    305.98605   -19081.065            0   -17119.167   -306.65509    34173.183 
 1430000    293.43275   -19081.963            0   -17200.553    62.188094     33976.22 
 1440000    295.85084   -19110.651            0   -17213.737     274.7647    34092.329 
 1450000    296.40462   -19080.939            0   -17180.474   -116.83161    34115.552 
 1460000    305.37635   -19072.252            0   -17114.263   -66.330801    34057.122 
 1470000    315.46138   -19103.584            0   -17080.933     524.6211    33842.399 
 1480000    300.62668   -19053.685            0    -17126.15   -304.61266    34290.877 
 1490000    297.42923   -19130.411            0   -17223.377   -128.90094    34008.553 
 1500000    303.75402   -19124.869            0   -17177.283   -179.42385    34256.365 
 1510000    300.05505   -19183.823            0   -17259.953   -4.2898592    33657.362 
 1520000    303.10559   -19067.067            0   -17123.638   -18.531308    34355.363 
 1530000    294.17429   -19018.869            0   -17132.705   -155.34885    34034.043 
 1540000    295.44342   -19069.166            0   -17174.865    91.051129    33780.134 
 1550000    295.56976   -19105.312            0   -17210.201   -116.05248    33954.732 
 1560000    285.74943   -19049.038            0   -17216.892    783.66713    33616.462 
 1570000    299.37974   -19049.052            0   -17129.512   -357.35613    33913.281 
 1580000    298.16215   -19034.223            0   -17122.491   -221.41346    33931.644 
 1590000    299.75425   -19101.836            0   -17179.894   -455.72216    34059.124 
 1600000    306.95265   -19051.241            0   -17083.146     528.9507    33590.477 
 1610000    296.78064   -19157.964            0   -17255.089    252.06967    33815.375 
 1620000    297.28733   -19073.342            0   -17167.218   -843.52084    33619.973 
 1630000    292.78616   -19071.833            0   -17194.569   -221.23281    33999.216 
 1640000    307.00245   -19108.304            0    -17139.89    79.897798    33735.903 
 1650000    287.41686   -19129.035            0   -17286.198   -557.37545    33854.035 
 1660000    303.31544   -19013.948            0   -17069.174    262.16018     34162.19 
 1670000    297.05914   -19047.295            0   -17142.634     16.08784    34121.297 
 1680000     292.1727   -19170.955            0   -17297.625   -463.81415    34013.719 
 1690000    297.00895    -19092.39            0   -17188.051    68.717494    34072.801 
 1700000    298.83633   -19057.537            0   -17141.482   -122.86386    34038.652 
 1710000    299.26362   -19020.069            0   -17101.273    210.06382    34101.241 
 1720000    303.27631   -19204.322            0   -17259.799    858.33447    33756.735 
 1730000    296.51354   -19071.068            0   -17169.906   -317.36011    34090.775 
 1740000    297.30476    -19021.51            0   -17115.275    77.229268    33536.952 
 1750000    301.84956   -18957.756            0   -17022.381    213.76452    33737.911 
 1760000    300.76311   -18986.083            0   -17057.674   -356.99256    34291.073 
 1770000    292.78065   -18999.106            0   -17121.878    424.13535    34217.247 
 1780000    292.39665   -19014.089            0   -17139.322    91.099619    33894.654 
 1790000    302.98038   -19071.826            0     -17129.2    93.397387     34151.11 
 1800000    295.98732   -19100.195            0   -17202.407   -243.02593     33840.66 
 1810000    296.10987   -19069.992            0   -17171.418    423.39453    33676.506 
 1820000    303.48638   -19123.061            0   -17177.191    562.54954    33581.656 
 1830000    297.48714   -19103.638            0   -17196.233   -372.76099    33946.401 
 1840000    295.47942   -19161.802            0    -17267.27   -449.80408    33897.827 
 1850000    301.87579   -19149.819            0   -17214.275   -393.58255    33828.834 
 1860000    295.89497   -19105.014            0   -17207.818   -209.38594    34065.483 
 1870000    288.07361   -19137.621            0   -17290.573     206.6806    33772.868 
 1880000    292.65426   -18956.783            0   -17080.366    824.58907     33754.16 
 1890000    294.78114    -19059.11            0   -17169.056    93.773364    33891.325 
 1900000    301.52392   -19116.337            0    -17183.05    240.61561    34140.351 
 1910000    300.49984   -19068.522            0     -17141.8    217.20366    33982.309 
 1920000    299.93611   -19097.125            0   -17174.018    333.87353    33908.472 
 1930000    287.67894   -19109.268            0    -17264.75    666.85072    33504.961 
 1940000    306.51664    -19063.66            0    -17098.36    460.38262    33741.893 
 1950000    293.40352   -19136.551            0   -17255.329   -52.464357    33777.454 
 1960000    296.49799   -19055.212            0   -17154.149   -526.38634    34329.785 
 1970000    307.28104   -19011.481            0   -17041.281    -160.6714    34425.536 
 1980000    287.34593   -19027.179            0   -17184.796    431.95069    33543.121 
 1990000    311.62751   -19063.289            0    -17065.22   -1386.7907     34382.94 
 2000000    295.51183   -19029.292            0   -17134.553   -409.47185    33682.582 
 2010000    300.21555   -19070.639            0    -17145.74   -524.89955    34046.409 
 2020000    298.37825   -19087.439            0    -17174.32    1.8445026    33864.301 
 2030000    300.43266   -19111.327            0   -17185.037    436.83425    34156.737 
 2040000    290.60129   -19057.345            0    -17194.09   -387.29017    33868.217 
 2050000    295.37738   -19123.583            0   -17229.705   -577.66765    34097.481 
 2060000    296.11084   -19158.766            0   -17260.185     129.6305    33769.821 
 2070000    292.55116   -19087.989            0   -17212.232   -418.92671    34241.252 
 2080000    293.84898   -19093.917            0   -17209.839    207.44903    33785.478 
 2090000    298.48965   -19088.396            0   -17174.563   -402.55831    34766.288 
 2100000    294.35159   -19077.038            0   -17189.738   -649.47615    33862.221 
 2110000    293.21498   -19058.589            0   -17178.576    500.10647    33895.731 
 2120000    310.32123   -19132.295            0   -17142.601    74.036873    34191.172 
 2130000    285.37833   -19023.506            0   -17193.739    260.03563    33752.697 
 2140000    301.01966   -19027.802            0   -17097.748   -229.63192    33730.152 
 2150000    303.86024    -19056.68            0   -17108.412    51.024556    33846.566 
 2160000    295.48423   -19052.628            0   -17158.065    79.108462     34216.78 
 2170000    303.44175   -19005.761            0   -17060.177    472.86326    33890.017 
 2180000    304.47804   -19045.598            0    -17093.37     224.9156     34167.34 
 2190000     293.4824   -19125.347            0   -17243.619   -324.84213    34034.707 
 2200000    301.36199   -19151.265            0   -17219.015    363.90841    34401.071 
 2210000    300.90574   -19177.531            0   -17248.207   -183.24502    33687.431 
 2220000    301.25754    -19093.11            0    -17161.53   -511.42576    34189.763 
 2230000    294.53778   -19205.165            0   -17316.671    173.18504    33314.106 
 2240000    300.15964    -19138.12            0    -17213.58   -212.61706    33720.713 
 2250000    294.67353   -19017.355            0    -17127.99   -739.08823    33713.903 
 2260000    305.26933   -19103.682            0    -17146.38   -936.66058    34043.831 
 2270000    301.63743   -19055.749            0   -17121.734    424.09166    33943.798 
 2280000     292.8998   -19043.928            0   -17165.936   -159.70383    33686.656 
 2290000     299.2007   -19062.626            0   -17144.235   -482.44746    33501.559 
 2300000     294.2746   -19110.654            0   -17223.847   -149.68588     33677.85 
 2310000    298.28585   -19038.009            0   -17125.483   -504.84125    33844.237 
 2320000    294.37418   -19071.389            0   -17183.944    154.62375     33686.86 
 2330000    290.16867   -19196.797            0   -17336.316   -337.84029    33629.442 
 2340000    291.03263    -19141.75            0    -17275.73    284.71757    33412.202 
 2350000    306.20926   -19022.046            0   -17058.717    276.93023    33952.366 
 2360000    288.52839   -19105.927            0   -17255.963   -290.47712    33953.785 
 2370000    312.98572   -19009.895            0   -17003.118   -89.941729    33608.242 
 2380000    301.23156   -19173.462            0   -17242.049   -991.65166    34179.322 
 2390000    298.95682   -19038.915            0   -17122.087   -102.24685    34140.648 
 2400000    303.42223   -19055.371            0   -17109.912    -747.9038    34350.343 
 2410000    304.96193   -19060.692            0   -17105.361    881.29679    33846.609 
 2420000    297.88513   -19130.246            0   -17220.289   -421.70382    33884.436 
 2430000    305.71377   -18946.989            0   -16986.837    96.627129    34135.597 
 2440000    298.25648   -18996.395            0   -17084.057   -590.71217    33805.299 
 2450000    297.24535   -19104.765            0    -17198.91   -972.96247    34161.133 
 2460000    303.33469   -19107.714            0   -17162.816    1049.8456    33444.988 
 2470000    295.51167   -19022.732            0   -17127.993     322.8275    33878.575 
 2480000    298.27092   -19068.531            0   -17156.101   -59.660718    33816.531 
 2490000     288.8071   -19096.513            0   -17244.762   -126.40164    33696.008 
 2500000    298.33108    -19090.55            0   -17177.734    625.40574    33806.317 
 2510000     300.8017   -19089.031            0   -17160.374    151.76059    33826.568 
 2520000    297.03328   -19120.707            0   -17216.212    227.40371    33822.684 
 2530000    294.18329   -19109.825            0   -17223.604   -314.02542    33707.316 
 2540000    301.31614   -19117.495            0    -17185.54    27.965439    34242.942 
 2550000    286.35357   -19011.142            0   -17175.123    143.83721    34041.647 
 2560000    297.58438   -19101.276            0   -17193.247    325.42183    34031.973 
 2570000    296.83162   -19098.275            0   -17195.073   -329.31227    34025.381 
 2580000    290.11846   -19158.179            0    -17298.02    683.27481    34129.811 
 2590000    308.51105   -19085.722            0   -17107.635   -333.27697    34155.201 
 2600000    294.20795   -19063.355            0   -17176.975   -380.17604    34065.294 
 2610000    300.79343   -19096.247            0   -17167.643    193.31686    34085.398 
 2620000    299.31911   -19014.219            0   -17095.068   -545.54052      34157.9 
 2630000    298.55278   -19015.226            0   -17100.988    587.63878    33757.512 
 2640000    302.41028   -19077.842            0   -17138.871    468.00133    33962.342 
 2650000    302.99038   -18952.272            0   -17009.582    424.47472    33802.886 
 2660000    298.01395   -19050.735            0   -17139.952    652.24379     33813.14 
 2670000    305.07287   -19077.491            0   -17121.449   -391.44987    33934.052 
 2680000    286.38049   -19095.001            0   -17258.809    -309.8865    33999.707 
 2690000    295.07838   -19025.015            0   -17133.054    548.61041    33719.905 
 2700000    287.05711   -19051.746            0   -17211.216    161.56131    33972.891 
 2710000    300.48395   -19110.355            0   -17183.735    194.11255    34054.891 
 2720000    299.81376   -18976.883            0   -17054.561    122.17829    34190.564 
 2730000     291.3931   -19068.303            0   -17199.972    -93.32387    34122.824 
 2740000    301.13803   -19000.541            0   -17069.728   -523.68654    34243.017 
 2750000    298.30869   -19127.188            0   -17214.516    522.26787    33961.941 
 2760000    304.99554   -19092.318            0   -17136.772   -44.612972    34161.577 
 2770000    298.82005   -18987.346            0   -17071.395    420.00135    34148.005 
 2780000    301.79905   -19157.689            0   -17222.637    242.00716    33613.286 
 2790000    294.78259    -19078.86            0   -17188.796    118.38053    33727.024 
 2800000      294.038   -19061.922            0   -17176.632    79.292357    34009.607 
 2810000    295.88577   -19108.297            0    -17211.16   -245.04145    33908.979 
 2820000    303.76787   -19027.022            0   -17079.347    524.91877    33688.791 
 2830000    300.58418   -19158.803            0    -17231.54    437.48303    33789.491 
 2840000    301.55502   -19173.972            0   -17240.485    267.51359    33545.551 
 2850000    294.48093   -19133.071            0   -17244.941    246.36235    33856.166 
 2860000    300.64954   -19056.867            0   -17129.186   -183.89792     34068.33 
 2870000    293.12144   -19123.575            0   -17244.162    354.11493    33744.874 
 2880000    299.84462   -19169.976            0   -17247.455    578.65179     33785.93 
 2890000    295.33597   -19074.234            0   -17180.621   -32.003815    34089.306 
 2900000    301.10492   -19099.457            0   -17168.856     94.85399    33782.949 
 2910000    293.79225   -18944.333            0   -17060.619    110.25198    33734.703 
 2920000    298.59034   -19102.445            0   -17187.967    528.47717    33852.246 
 2930000    298.57248   -18984.221            0   -17069.857    67.443278    34179.772 
 2940000    299.46272   -19025.158            0   -17105.086   -636.90474    34292.411 
 2950000    290.06492   -19145.292            0   -17285.476    289.82974    33683.469 
 2960000     302.3502   -19101.447            0   -17162.861   -856.70552    34155.337 
 2970000    295.31677   -19091.405            0   -17197.916   -1034.9303    34362.863 
 2980000    291.00002   -18993.975            0   -17128.163   -29.135404    33736.613 
 2990000    293.11453   -19172.168            0   -17292.799   -99.109704    33805.969 
 3000000    298.76891   -19157.976            0   -17242.353    212.66574    34146.203 
 3010000    307.84646   -19077.872            0   -17104.046    321.55745    33856.891 
 3020000    293.87186   -19119.338            0   -17235.113    125.42617    33924.331 
 3030000    297.33827   -19100.646            0   -17194.196    330.75291     33788.58 
 3040000    301.26457    -19039.38            0   -17107.755     454.9441    34254.171 
 3050000      283.938   -19071.425            0   -17250.893    903.08139    33833.565 
 3060000    305.72187   -19091.214            0    -17131.01    428.58677    34200.246 
 3070000    289.93433   -19073.992            0   -17215.013    166.44303    34210.649 
 3080000    288.16301   -19088.523            0   -17240.901    337.32376    33959.896 
 3090000    293.14665   -19094.908            0   -17215.333    -681.3865    34216.421 
 3100000    293.03112   -19085.221            0   -17206.387   -738.11356     33742.48 
 3110000     292.5147   -19083.994            0   -17208.471   -974.45742    34337.331 
 3120000    303.04809   -19074.974            0   -17131.914    670.13586    33814.909 
 3130000    299.44755   -19093.333            0   -17173.358    -161.6272    33840.438 
 3140000     295.3485   -18966.805            0   -17073.113   -1.8039213    33936.059 
 3150000    292.08616    -19066.74            0   -17193.964    284.91447    33337.511 
 3160000    298.18438     -19136.2            0   -17224.324    778.78564    33657.802 
 3170000      303.897   -19116.591            0   -17168.087   -1009.6191    34126.163 
 3180000    293.92959   -19096.936            0   -17212.341   -415.29165     34119.63 
 3190000    294.16873   -19087.862            0   -17201.733   -221.44197    33871.051 
 3200000    296.80664   -19055.849            0   -17152.807    197.12419    33977.355 
 3210000    299.20266   -19052.909            0   -17134.504   -522.75713    34165.679 
 3220000    291.52336   -19070.479            0   -17201.312    434.39275    33704.418 
 3230000    296.01859   -19294.872            0   -17396.883   -178.99943    33689.518 
 3240000    288.77246   -19067.502            0   -17215.974   -161.29602    34143.456 
 3250000    296.85619   -19085.944            0   -17182.584    696.99589    33634.712 
 3260000    290.75894   -18998.791            0   -17134.525   -555.91578    33834.592 
 3270000    303.00991   -19045.856            0   -17103.041    705.16928    33702.113 
 3280000    294.19212   -19076.251            0   -17189.973   -128.64782    33879.274 
 3290000      299.772   -19056.503            0   -17134.448    657.74361    33883.886 
 3300000    301.99995   -19106.516            0   -17170.176    12.060602    34052.923 
 3310000    292.85824   -19102.287            0   -17224.561    207.25657    33588.315 
 3320000    293.50058   -19078.617            0   -17196.773    143.39645    34020.643 
 3330000    296.08115   -19131.326            0   -17232.935   -227.72654    34070.539 
 3340000    298.14922   -19094.083            0   -17182.433   -436.85657    33973.955 
 3350000    284.61556   -19131.776            0     -17306.9    374.08362    33757.436 
 3360000    305.36863   -19032.168            0   -17074.229   -144.26601    33835.546 
 3370000    295.39608   -19177.663            0   -17283.666    891.62578    33366.372 
 3380000    304.68474   -19089.887            0   -17136.333   -1073.3836    34213.491 
 3390000    301.15009   -19061.929            0   -17131.038     947.2366    33597.728 
 3400000    293.19149   -19042.908            0   -17163.045    404.71326    33724.323 
 3410000    303.57784   -19058.832            0   -17112.375   -377.19866    33929.695 
 3420000    303.07454     -19097.8            0    -17154.57    602.91644    33556.917 
 3430000    298.93205    -19003.93            0   -17087.261    88.093947    33860.404 
 3440000    301.61985   -19073.215            0   -17139.312    1055.2971    33878.447 
 3450000    297.64097   -19063.785            0   -17155.394    140.57004    33534.132 
 3460000    297.12256    -19038.04            0   -17132.973   -474.56357    34046.041 
 3470000    302.54366   -19069.913            0   -17130.087     116.3544    34132.048 
 3480000     296.1607    -18994.68            0    -17095.78    -548.0924    34401.804 
 3490000    300.13218   -19049.324            0    -17124.96   -959.74024    34077.502 
 3500000    288.97736   -19165.936            0   -17313.094   -35.294711    33821.614 
 3510000     300.9709   -19126.442            0     -17196.7    248.95191    33629.103 
 3520000    298.34288   -19096.664            0   -17183.772   -40.780725    34062.059 
 3530000    298.47634   -19107.379            0   -17193.631    711.66555    33420.003 
 3540000    302.95562   -19063.851            0   -17121.384   -162.54698    33964.744 
 3550000    292.63216   -19157.022            0   -17280.745   -258.96225    34064.692 
 3560000    286.59557   -19104.057            0   -17266.485   -637.12181    33667.288 
 3570000    293.83526    -19099.01            0    -17215.02     165.5134    34074.347 
 3580000    301.39608    -19069.21            0   -17136.742    287.76779    34080.289 
 3590000    295.54371   -19095.575            0   -17200.631    168.09844    33930.589 
 3600000    298.34994   -19151.589            0   -17238.652    167.23741    34267.825 
 3610000    301.67933   -19063.679            0   -17129.395     68.34853    34028.222 
 3620000    297.97367   -19067.802            0   -17157.278    271.06813    33847.216 
 3630000     305.8247   -19112.654            0   -17151.791    898.05691    33758.586 
 3640000    292.50225   -19041.278            0   -17165.835   -439.81575    34673.581 
 3650000    294.61609   -19111.858            0   -17222.861   -6.2799137    33804.985 
 3660000    288.32286    -19125.84            0   -17277.194    -108.6668    33822.857 
 3670000    313.34475    -19019.43            0    -17010.35    740.87698    34114.673 
 3680000    304.79594   -19064.715            0   -17110.448    199.04571    34084.342 
 3690000    302.02865   -19116.113            0   -17179.589   -884.63481    34156.706 
 3700000    297.12311   -19047.809            0   -17142.738   -32.919767    34000.644 
 3710000    302.97808   -19094.303            0   -17151.691    344.79365    33948.492 
 3720000    296.77803   -19032.288            0   -17129.429   -74.678059    33979.555 
 3730000    292.56478   -19102.009            0   -17226.165   -220.11769    33509.139 
 3740000    299.50274   -19103.685            0   -17183.356   -482.68694    34186.562 
 3750000    297.91404   -19112.411            0   -17202.269    335.08543      33888.9 
 3760000    300.48033    -19116.61            0   -17190.014   -204.71505     33903.65 
 3770000    298.23056     -19068.4            0   -17156.229    54.149983    34325.707 
 3780000    295.40103   -19073.527            0   -17179.498    528.40564    33919.914 
 3790000    291.68502   -19201.356            0   -17331.153   -166.58976    33868.521 
 3800000     295.9742   -19193.444            0    -17295.74    696.49646    33721.802 
 3810000     298.2812   -19117.148            0   -17204.652    468.05798    33724.598 
 3820000     288.4094   -19092.687            0   -17243.486    -247.6733    33910.138 
 3830000    295.50322   -19041.427            0   -17146.742   -217.84554     34328.82 
 3840000    300.99538   -19179.793            0   -17249.894    720.75641    33811.167 
 3850000      293.753   -19033.958            0   -17150.495   -394.41327    34024.756 
 3860000    298.28335    -19062.84            0    -17150.33    298.89796     33666.01 
 3870000    301.65856   -19085.337            0   -17151.186    81.281057    33898.422 
 3880000    297.40074   -19139.346            0   -17232.495   -373.20375    34120.167 
 3890000    301.15478   -19057.171            0    -17126.25    254.45394    33743.135 
 3900000    302.86676   -19090.342            0   -17148.444    628.58608    33578.315 
 3910000    297.19613   -19185.534            0   -17279.995    106.18787    33704.901 
 3920000    300.85892   -19113.194            0    -17184.17    424.78402    33497.751 
 3930000    289.44495   -19133.359            0   -17277.518   -218.27342    33925.985 
 3940000    294.13916   -19173.716            0   -17287.778     80.64593    33844.315 
 3950000    291.64696    -19025.41            0    -17155.45   -264.78557    34053.648 
 3960000    293.71358    -19137.59            0    -17254.38   -221.03517    33556.515 
 3970000    300.44905   -19105.597            0   -17179.201    328.42763    34050.284 
 3980000      295.482   -19123.778            0    -17229.23    374.83833    33370.031 
 3990000    290.25665   -19041.224            0   -17180.179    370.88914    33850.648 
 4000000    296.28329   -19187.035            0   -17287.349   -848.29229    34213.697 
 4010000    301.18072   -19012.051            0   -17080.964   -301.16141    34151.613 
 4020000     302.2712   -19107.568            0   -17169.489    167.68213    33707.189 
 4030000    300.89026   -19118.806            0   -17189.581    44.699539    33910.726 
 4040000    286.88189   -19024.282            0   -17184.875     -625.518    34198.583 
 4050000    303.92602   -19084.282            0   -17135.592    494.99229    33944.887 
 4060000    300.77506   -19100.547            0   -17172.061    271.65371    33882.952 
 4070000    304.33732   -19118.888            0   -17167.562    151.24168     34126.96 
 4080000    306.12772   -19059.584            0   -17096.778    -512.8188    34210.792 
 4090000    299.79657   -18976.703            0    -17054.49   -350.79011    34126.495 
 4100000    303.80973   -19037.494            0    -17089.55    -400.9444    34209.962 
 4110000     306.1046   -18999.087            0   -17036.429    442.59982    33786.558 
 4120000    304.01341   -19084.487            0   -17135.238   -473.17598    33789.879 
 4130000    300.98047    -19071.82            0   -17142.017    46.330912    33952.648 
 4140000    289.49153   -19010.046            0   -17153.906   -65.110346    33845.716 
 4150000    293.12295   -19011.135            0   -17131.712   -20.763231     34164.36 
 4160000     307.8747   -19086.014            0   -17112.007      592.609    34051.849 
 4170000    299.23651   -19125.841            0   -17207.219   -847.37835    34127.551 
 4180000    287.14024   -19100.761            0   -17259.697    -315.0763    34021.752 
 4190000     291.2994    -19183.88            0   -17316.149    447.74925    33810.119 
 4200000    296.10238   -19186.592            0   -17288.066    478.09073    33550.938 
 4210000    295.12992   -19057.768            0   -17165.477   -28.177929    33826.458 
 4220000    299.22773   -19035.804            0   -17117.239    348.19718    34027.275 
 4230000    292.59399   -19031.049            0   -17155.017    202.13606    33697.085 
 4240000     305.7262   -19116.899            0   -17156.667    222.82569    34338.766 
 4250000    289.29653   -19089.168            0   -17234.279   -227.35173    33645.144 
 4260000    301.48272   -19008.456            0   -17075.433    55.590614    33575.509 
 4270000    301.85349   -19027.856            0   -17092.455   -177.56104    34188.549 
 4280000    302.10598   -19094.591            0   -17157.571    159.87707     33890.16 
 4290000    298.60453   -19023.867            0   -17109.297    203.25716    34192.643 
 4300000    300.42225   -18992.949            0   -17066.725   -408.08593    34260.142 
 4310000    301.35992   -19041.732            0   -17109.496    376.83609    33896.917 
 4320000    298.19933   -19104.003            0   -17192.032   -460.25048     34210.29 
 4330000    307.05296   -19074.587            0   -17105.848   -60.356402    33745.555 
 4340000    292.15463   -19028.846            0   -17155.632   -170.69062    34311.199 
 4350000    302.50184   -19063.079            0   -17123.522   -686.34925    34263.783 
 4360000    303.76683    -19004.73            0   -17057.061    50.852803    34132.926 
 4370000    290.90321   -19045.068            0   -17179.877   -600.31757    34537.752 
 4380000    286.17732   -19060.415            0   -17225.526   -19.589899    33825.757 
 4390000    293.56749   -19192.493            0   -17310.219     630.4816    33643.306 
 4400000    297.77207   -19052.245            0   -17143.013   -708.63108    34304.384 
 4410000    300.64599   -19052.945            0   -17125.286   -455.95942    34180.354 
 4420000    302.15968   -19056.922            0   -17119.558   -342.92104    34417.096 
 4430000    299.49537   -19026.866            0   -17106.584    321.92174    33688.417 
 4440000    292.70088   -19080.733            0   -17204.017   -41.573025    33963.441 
 4450000    293.18636   -19071.132            0   -17191.303    119.55729    33820.744 
 4460000    301.92146   -19018.471            0   -17082.635   -499.46641    34110.359 
 4470000    299.19033   -19074.303            0   -17155.977    342.04168    34054.302 
 4480000    298.47295   -19043.114            0   -17129.388   -323.09616     34006.85 
 4490000    295.88272   -19093.927            0   -17196.809    93.770282     34131.63 
 4500000    304.33837   -19099.215            0   -17147.882    519.85783    33856.601 
 4510000     300.8234   -19127.228            0   -17198.432    111.26021    34181.161 
 4520000    303.85052   -19101.989            0   -17153.784    159.15293    33926.885 
 4530000    303.19242   -19027.285            0     -17083.3   -257.06955     33959.56 
 4540000    301.40241   -19090.178            0   -17157.669   -161.79995    34132.662 
 4550000    289.42614   -19062.276            0   -17206.556    357.21096    33471.024 
 4560000    299.91192   -19017.537            0   -17094.585    742.02816    33763.603 
 4570000    292.89066   -19086.059            0   -17208.125   -228.02557    34332.494 
 4580000    298.37769   -19138.157            0   -17225.042    967.79011    33355.907 
 4590000    297.29875   -19076.081            0   -17169.883    128.96308    34044.053 
 4600000    296.32736   -19116.323            0   -17216.354   -116.78885    33825.393 
 4610000    306.93603   -19067.113            0   -17099.125   -88.871836    33618.382 
 4620000    297.27273   -19046.957            0   -17140.927     236.7063    34078.177 
 4630000    304.72107   -19104.014            0   -17150.227    -2.312595    33989.471 
 4640000    302.02596   -19037.006            0     -17100.5   -305.25945    34252.922 
 4650000    301.72834    -19028.07            0   -17093.472   -54.025927    33977.831 
 4660000    293.90032   -19147.567            0    -17263.16   -193.00526    33948.722 
 4670000    296.27024   -19065.812            0   -17166.209   -116.77797    33949.139 
 4680000    296.11269   -19173.646            0   -17275.053    462.44838    33803.457 
 4690000    301.24524   -19128.825            0   -17197.324   -653.53057    34165.891 
 4700000    296.92522   -19109.576            0   -17205.774   -158.09235    34348.872 
 4710000    300.76077   -19095.062            0   -17166.668   -275.69173    33892.726 
 4720000    292.16211   -19081.109            0   -17207.847   -87.559514    33930.684 
 4730000    293.16585   -19097.753            0   -17218.055   -131.68292    33954.208 
 4740000    291.37117   -19012.931            0    -17144.74   -401.00584    34236.281 
 4750000    304.08377   -18999.855            0   -17050.155   -632.01811    34262.678 
 4760000    302.20887   -19024.463            0   -17086.783    202.79868    33981.363 
 4770000    293.27286   -18988.557            0   -17108.173    437.43181    33652.632 
 4780000    301.93995   -19052.421            0   -17116.466   -215.29668    33783.022 
 4790000    290.63304   -19165.091            0   -17301.632    583.55546    33578.527 
 4800000    293.59826   -19044.365            0   -17161.895    79.267043    34182.602 
 4810000    295.56691   -19097.146            0   -17202.053    12.417504    33778.667 
 4820000    302.58072   -19088.997            0   -17148.934   -96.088488    34084.886 
 4830000    283.96093    -19031.73            0   -17211.051   -366.80482    33768.863 
 4840000    293.62335   -19097.341            0   -17214.709   -492.40425    33776.448 
 4850000    305.69724   -19095.541            0   -17135.495    173.52266    34004.064 
 4860000    294.16831   -19064.166            0   -17178.041    348.64882    33948.317 
 4870000    292.77199   -19028.878            0   -17151.706   -483.88321     34106.34 
 4880000    298.61903   -19048.809            0   -17134.147    429.81104    33958.514 
 4890000    296.84863   -19015.562            0   -17112.251    547.30576    33908.276 
 4900000    298.37588   -19013.122            0   -17100.018   -573.18103    33856.168 
 4910000    296.48294   -19136.884            0   -17235.918   -179.19151    33560.058 
 4920000    299.62761   -19038.963            0   -17117.834   -87.108643    34350.539 
 4930000     305.0495   -19034.275            0   -17078.382    540.46391    33966.359 
 4940000    296.39769   -19018.981            0   -17118.561   -160.55554    33737.294 
 4950000     292.8999   -19055.999            0   -17178.006    -778.2792    34260.907 
 4960000    293.38666    -19010.53            0   -17129.416    598.67085    33936.637 
 4970000    304.83673   -19087.105            0   -17132.576   -807.27063    34133.931 
 4980000    297.86383   -19137.934            0   -17228.114    1013.1926     33757.31 
 4990000    301.39004   -19036.213            0   -17103.784   -509.96852    33986.814 
 5000000    304.14994   -19106.354            0   -17156.229    -392.4844    33712.121 
Loop time of 5146.65 on 128 procs for 5000000 steps with 3152 atoms

Performance: 167.876 ns/day, 0.143 hours/ns, 971.505 timesteps/s
99.3% CPU use with 128 MPI tasks x no OpenMP threads

MPI task timing breakdown:
Section |  min time  |  avg time  |  max time  |%varavg| %total
---------------------------------------------------------------
Pair    | 1130.1     | 1364.8     | 1576.3     | 295.7 | 26.52
Bond    | 0.47443    | 0.59147    | 0.8877     |  10.2 |  0.01
Kspace  | 2115.2     | 2316.2     | 2526.2     | 220.7 | 45.00
Neigh   | 147.16     | 150.93     | 154.53     |  22.6 |  2.93
Comm    | 541.81     | 603.99     | 674.03     | 124.9 | 11.74
Output  | 0.041789   | 0.042439   | 0.043457   |   0.2 |  0.00
Modify  | 525.87     | 627.79     | 676.05     | 139.5 | 12.20
Other   |            | 82.39      |            |       |  1.60

Nlocal:    24.625 ave 33 max 17 min
Histogram: 4 11 8 23 13 32 21 12 2 2
Nghost:    2838.77 ave 2866 max 2806 min
Histogram: 3 10 13 8 15 18 22 20 6 13
Neighs:    8977.92 ave 12209 max 6033 min
Histogram: 9 9 12 18 14 30 15 8 8 5

Total # of neighbors = 1149174
Ave neighs/atom = 364.586
Ave special neighs/atom = 1.90355
Neighbor list builds = 435485
Dangerous builds = 0
reset_timestep 0

#################### 2) Obtaining average volume in NPT ######################
# Getting the average volume of the system
variable Volume equal vol
fix VoluAve all ave/time 1 ${Npnpt} ${Npnpt} v_Volume file volume.dat
fix VoluAve all ave/time 1 5000000 ${Npnpt} v_Volume file volume.dat
fix VoluAve all ave/time 1 5000000 5000000 v_Volume file volume.dat


# Thermo style for outputing system properties to the log file
thermo_style custom density
thermo_modify flush yes

variable Dens equal density
fix DensAve all ave/time 1 ${NBR} ${NBR} v_Dens file density.dat
fix DensAve all ave/time 1 100000 ${NBR} v_Dens file density.dat
fix DensAve all ave/time 1 100000 100000 v_Dens file density.dat

run ${Npnpt}
run 5000000
PPPM initialization ...
  extracting TIP4P info from pair style
  using 12-bit tables for long-range coulomb (../kspace.cpp:321)
  G vector (1/distance) = 0.309811
  grid = 30 30 30
  stencil order = 5
  estimated absolute RMS force accuracy = 0.0037982
  estimated relative force accuracy = 1.14382e-05
  using double precision FFTs
  3d grid and FFT values/proc = 2475 256
Per MPI rank memory allocation (min/avg/max) = 8.199 | 8.21 | 8.217 Mbytes
Density 
   1.1664493 
   1.1551148 
   1.1652075 
   1.1486627 
   1.1548502 
   1.1692614 
   1.1545019 
   1.1552128 
   1.1566724 
   1.1652839 
   1.1561216 
   1.1622653 
   1.1625072 
   1.1643688 
   1.1606691 
   1.1566287 
   1.1651813 
   1.1574299 
   1.1674619 
   1.1689154 
    1.167376 
   1.1599728 
   1.1644593 
   1.1456762 
   1.1476062 
   1.1599249 
   1.1643979 
   1.1523292 
    1.164007 
   1.1538346 
   1.1652113 
   1.1528885 
   1.1621518 
   1.1757161 
    1.149263 
   1.1691227 
   1.1557907 
   1.1520086 
   1.1558856 
   1.1620429 
    1.148038 
     1.16709 
   1.1428803 
   1.1581534 
   1.1533005 
   1.1544438 
   1.1402435 
   1.1512486 
   1.1722135 
   1.1592055 
   1.1561536 
   1.1635867 
   1.1547125 
    1.169893 
   1.1474646 
   1.1580643 
   1.1552588 
   1.1705141 
   1.1668691 
   1.1656248 
   1.1698372 
   1.1593352 
   1.1677298 
   1.1538018 
   1.1640906 
    1.161457 
   1.1655775 
   1.1621828 
   1.1568607 
     1.14962 
   1.1610162 
   1.1594587 
    1.149806 
   1.1405216 
   1.1688754 
   1.1634172 
   1.1523495 
   1.1500097 
   1.1496822 
   1.1658921 
   1.1583772 
   1.1442307 
   1.1521938 
   1.1619929 
   1.1583068 
   1.1694188 
   1.1591756 
    1.157746 
   1.1451586 
   1.1655694 
   1.1603055 
   1.1621221 
   1.1493468 
   1.1460083 
   1.1620966 
   1.1480162 
   1.1514601 
    1.162218 
   1.1431192 
    1.153793 
   1.1492205 
   1.1635867 
   1.1548775 
   1.1677076 
   1.1572738 
   1.1581883 
   1.1581842 
   1.1651327 
   1.1613684 
   1.1435223 
   1.1483312 
   1.1596551 
   1.1534223 
   1.1600712 
   1.1620771 
   1.1658327 
   1.1525385 
   1.1663202 
   1.1523389 
   1.1715555 
   1.1626085 
    1.165086 
   1.1436667 
    1.149644 
   1.1552263 
   1.1585291 
    1.160405 
   1.1633041 
   1.1525415 
   1.1486519 
    1.141876 
   1.1629974 
   1.1581294 
    1.166119 
   1.1563777 
   1.1654689 
   1.1505527 
   1.1492233 
    1.169756 
   1.1711674 
   1.1579761 
   1.1704237 
   1.1691816 
   1.1594486 
   1.1612251 
   1.1753355 
   1.1657753 
   1.1633459 
   1.1562502 
    1.158247 
   1.1542608 
   1.1594279 
   1.1505206 
   1.1574672 
   1.1817194 
   1.1546471 
   1.1525521 
   1.1466442 
   1.1579824 
   1.1578481 
   1.1540439 
   1.1474761 
   1.1646942 
   1.1630861 
   1.1401543 
   1.1652553 
   1.1624411 
   1.1437785 
   1.1456895 
    1.163035 
   1.1682775 
   1.1617933 
   1.1650018 
   1.1523273 
    1.162788 
   1.1537806 
   1.1478233 
   1.1541045 
   1.1505786 
   1.1518313 
   1.1465399 
   1.1712007 
   1.1720425 
    1.155806 
   1.1569294 
   1.1538534 
   1.1581737 
    1.164471 
   1.1553745 
   1.1464107 
   1.1469771 
   1.1577715 
   1.1342593 
   1.1581082 
   1.1579629 
   1.1474577 
   1.1639606 
   1.1426582 
   1.1602625 
   1.1665852 
   1.1523839 
   1.1628226 
   1.1563542 
   1.1503588 
   1.1583658 
   1.1626676 
   1.1465685 
   1.1519378 
   1.1460942 
   1.1608982 
   1.1672045 
   1.1438163 
   1.1628821 
   1.1660963 
   1.1613525 
    1.169592 
   1.1607321 
    1.167822 
   1.1636519 
   1.1796387 
   1.1575232 
   1.1557221 
    1.162946 
   1.1718986 
   1.1706989 
   1.1659632 
   1.1690396 
   1.1526105 
   1.1534236 
   1.1674226 
   1.1457035 
   1.1572406 
   1.1612067 
    1.160906 
   1.1464942 
    1.146472 
   1.1663955 
   1.1588875 
   1.1593321 
    1.141689 
   1.1654151 
   1.1495914 
   1.1573685 
   1.1592647 
   1.1422276 
   1.1585777 
   1.1531855 
   1.1574027 
   1.1654319 
   1.1539229 
   1.1528526 
   1.1516463 
   1.1565802 
    1.148225 
   1.1644244 
   1.1541108 
   1.1617969 
   1.1658523 
   1.1590083 
   1.1602373 
   1.1481398 
   1.1633184 
    1.159895 
   1.1560933 
   1.1544301 
   1.1726558 
   1.1644894 
    1.148487 
   1.1661818 
   1.1565044 
   1.1444021 
   1.1612176 
   1.1535763 
   1.1683594 
   1.1579848 
   1.1539694 
   1.1532937 
   1.1586769 
   1.1540583 
   1.1523173 
    1.157246 
   1.1749108 
   1.1374103 
   1.1542521 
   1.1665574 
   1.1465658 
   1.1739771 
   1.1663947 
   1.1631659 
   1.1541208 
   1.1626385 
   1.1549887 
   1.1532041 
   1.1634787 
   1.1484707 
   1.1657818 
   1.1472066 
   1.1451292 
   1.1524344 
    1.161949 
   1.1463917 
   1.1753978 
    1.172401 
   1.1555007 
   1.1461032 
   1.1445125 
   1.1513694 
   1.1572915 
   1.1566244 
   1.1821583 
   1.1358949 
   1.1573899 
   1.1437279 
   1.1604355 
   1.1558362 
   1.1533868 
   1.1627767 
   1.1727771 
   1.1704337 
   1.1645295 
   1.1589485 
   1.1598178 
   1.1565718 
   1.1691503 
   1.1602535 
   1.1525649 
   1.1579288 
   1.1582581 
   1.1527729 
   1.1438577 
   1.1562182 
   1.1727205 
   1.1637598 
   1.1643576 
   1.1561199 
   1.1659397 
   1.1600658 
   1.1443369 
   1.1648601 
   1.1628507 
   1.1585906 
    1.150408 
   1.1602364 
   1.1507312 
   1.1539195 
   1.1684858 
   1.1539209 
   1.1532503 
   1.1537319 
   1.1475272 
   1.1472823 
   1.1561263 
   1.1581491 
    1.154465 
   1.1759968 
   1.1474536 
   1.1671902 
   1.1490144 
   1.1662252 
   1.1632834 
   1.1532481 
   1.1521056 
   1.1607301 
   1.1462251 
   1.1643914 
   1.1492316 
   1.1589382 
   1.1626912 
   1.1587522 
   1.1635663 
   1.1630342 
   1.1663823 
   1.1683186 
   1.1779036 
   1.1658457 
   1.1620305 
   1.1499433 
   1.1651283 
   1.1561224 
   1.1586616 
   1.1508265 
   1.1598832 
   1.1566039 
   1.1434758 
   1.1645709 
   1.1494665 
   1.1716909 
   1.1611697 
   1.1641324 
    1.142799 
   1.1589015 
   1.1669675 
   1.1498303 
   1.1530322 
   1.1596524 
   1.1629391 
   1.1469266 
   1.1596611 
   1.1705755 
   1.1584825 
   1.1572625 
   1.1628565 
   1.1601909 
   1.1612495 
   1.1654161 
   1.1592682 
   1.1612962 
      1.1571 
   1.1567483 
   1.1599527 
    1.160212 
   1.1483661 
   1.1500272 
   1.1554982 
   1.1557211 
   1.1437335 
   1.1548813 
   1.1751536 
   1.1599488 
    1.161011 
   1.1737295 
   1.1449702 
   1.1665732 
    1.160593 
   1.1684533 
   1.1579087 
   1.1579209 
   1.1582502 
   1.1610028 
   1.1694604 
    1.174325 
   1.1562848 
   1.1589476 
   1.1657922 
   1.1563018 
        1.16 
   1.1742177 
   1.1621896 
     1.15258 
   1.1552943 
   1.1634713 
   1.1760596 
   1.1631075 
   1.1440927 
   1.1649115 
   1.1509669 
   1.1740489 
     1.16417 
   1.1465339 
   1.1462079 
   1.1523543 
   1.1764768 
    1.178496 
   1.1355644 
   1.1677321 
   1.1583161 
   1.1762699 
   1.1648078 
    1.176444 
   1.1555417 
   1.1608639 
   1.1677847 
    1.158763 
   1.1626425 
   1.1613661 
   1.1494919 
   1.1536934 
   1.1496794 
   1.1586061 
   1.1637863 
   1.1530968 
   1.1517078 
   1.1444956 
   1.1605037 
   1.1578822 
   1.1672315 
   1.1624304 
   1.1435306 
   1.1468165 
   1.1730608 
   1.1467943 
   1.1537455 
   1.1537809 
   1.1421764 
   1.1597867 
   1.1641756 
   1.1470576 
   1.1743373 
   1.1646728 
   1.1778932 
   1.1718505 
   1.1658853 
   1.1518701 
   1.1786005 
   1.1539917 
   1.1656296 
   1.1488678 
   1.1458336 
   1.1490938 
   1.1677234 
   1.1519697 
Loop time of 5199.57 on 128 procs for 5000000 steps with 3152 atoms

Performance: 166.168 ns/day, 0.144 hours/ns, 961.619 timesteps/s
99.3% CPU use with 128 MPI tasks x no OpenMP threads

MPI task timing breakdown:
Section |  min time  |  avg time  |  max time  |%varavg| %total
---------------------------------------------------------------
Pair    | 1123       | 1360.5     | 1580.2     | 294.4 | 26.17
Bond    | 0.48978    | 0.58764    | 0.87892    |  10.5 |  0.01
Kspace  | 2110.7     | 2319.8     | 2528       | 218.8 | 44.62
Neigh   | 142.85     | 147.01     | 150.93     |  25.9 |  2.83
Comm    | 538.03     | 603.33     | 677.06     | 133.2 | 11.60
Output  | 0.018254   | 0.023203   | 0.04383    |   2.1 |  0.00
Modify  | 581.12     | 685.01     | 735.09     | 135.8 | 13.17
Other   |            | 83.26      |            |       |  1.60

Nlocal:    24.625 ave 32 max 17 min
Histogram: 3 4 15 11 28 17 24 10 15 1
Nghost:    2812.66 ave 2836 max 2783 min
Histogram: 3 5 9 15 19 14 29 17 9 8
Neighs:    8875.41 ave 12604 max 6034 min
Histogram: 11 9 20 17 21 22 9 11 7 1

Total # of neighbors = 1136053
Ave neighs/atom = 360.423
Ave special neighs/atom = 1.90355
Neighbor list builds = 435565
Dangerous builds = 0
reset_timestep 0

#################### 3) Initializing the NVT ensemble ####################
# scaling the size of the system to the average volume
variable sidesize equal (f_VoluAve^(1.0/3.0))    # get the volume
variable xlow equal xlo
variable ylow equal ylo
variable zlow equal zlo
variable xhig equal (xlo+${sidesize})
variable xhig equal (xlo+32.3741938521688)
variable yhig equal (ylo+${sidesize})
variable yhig equal (ylo+32.3741938521688)
variable zhig equal (zlo+${sidesize})
variable zhig equal (zlo+32.3741938521688)
change_box all x final ${xlow} ${xhig} y final ${ylow} ${yhig} z final ${zlow} ${zhig}
change_box all x final 0.628480187381314 ${xhig} y final ${ylow} ${yhig} z final ${zlow} ${zhig}
change_box all x final 0.628480187381314 33.0026740395501 y final ${ylow} ${yhig} z final ${zlow} ${zhig}
change_box all x final 0.628480187381314 33.0026740395501 y final 0.628480187381314 ${yhig} z final ${zlow} ${zhig}
change_box all x final 0.628480187381314 33.0026740395501 y final 0.628480187381314 33.0026740395501 z final ${zlow} ${zhig}
change_box all x final 0.628480187381314 33.0026740395501 y final 0.628480187381314 33.0026740395501 z final 0.628480187381314 ${zhig}
change_box all x final 0.628480187381314 33.0026740395501 y final 0.628480187381314 33.0026740395501 z final 0.628480187381314 33.0026740395501
  orthogonal box = (0.62848 0.62848 0.62848) to (33.0027 33.0677 33.0677)
  orthogonal box = (0.62848 0.62848 0.62848) to (33.0027 33.0027 33.0677)
  orthogonal box = (0.62848 0.62848 0.62848) to (33.0027 33.0027 33.0027)
unfix DensAve
unfix VoluAve

# changing the ensemble to NVT
unfix integrate
fix integrate all nvt temp ${Temp} ${Temp} 100.0
fix integrate all nvt temp 298 ${Temp} 100.0
fix integrate all nvt temp 298 298 100.0


# Initializing the whole system with very small timesteps in the NVT ensemble
timestep 0.001
run ${Ninvtpre}
run 10000
PPPM initialization ...
  extracting TIP4P info from pair style
  using 12-bit tables for long-range coulomb (../kspace.cpp:321)
  G vector (1/distance) = 0.309655
  grid = 30 30 30
  stencil order = 5
  estimated absolute RMS force accuracy = 0.00382271
  estimated relative force accuracy = 1.1512e-05
  using double precision FFTs
  3d grid and FFT values/proc = 2475 256
Per MPI rank memory allocation (min/avg/max) = 8.199 | 8.21 | 8.217 Mbytes
Density 
   1.1589243 
   1.1589243 
Loop time of 7.81878 on 128 procs for 10000 steps with 3152 atoms

Performance: 0.111 ns/day, 217.188 hours/ns, 1278.971 timesteps/s
99.4% CPU use with 128 MPI tasks x no OpenMP threads

MPI task timing breakdown:
Section |  min time  |  avg time  |  max time  |%varavg| %total
---------------------------------------------------------------
Pair    | 1.3381     | 2.0274     | 2.8396     |  24.9 | 25.93
Bond    | 0.00075608 | 0.00089951 | 0.0014497  |   0.0 |  0.01
Kspace  | 3.0928     | 3.8942     | 4.5808     |  17.6 | 49.81
Neigh   | 0          | 0          | 0          |   0.0 |  0.00
Comm    | 0.97842    | 1.0667     | 1.1355     |   3.6 | 13.64
Output  | 3.6538e-05 | 4.6015e-05 | 9.0279e-05 |   0.0 |  0.00
Modify  | 0.65285    | 0.72079    | 0.77674    |   3.8 |  9.22
Other   |            | 0.1087     |            |       |  1.39

Nlocal:    24.625 ave 32 max 17 min
Histogram: 4 3 13 12 30 15 27 9 11 4
Nghost:    2824.48 ave 2847 max 2805 min
Histogram: 10 9 10 19 17 26 21 5 10 1
Neighs:    8928.47 ave 12200 max 5945 min
Histogram: 5 8 23 16 23 17 11 9 10 6

Total # of neighbors = 1142844
Ave neighs/atom = 362.577
Ave special neighs/atom = 1.90355
Neighbor list builds = 0
Dangerous builds = 0
timestep 0.01
run ${Ninvtpre}
run 10000
PPPM initialization ...
  extracting TIP4P info from pair style
  using 12-bit tables for long-range coulomb (../kspace.cpp:321)
  G vector (1/distance) = 0.309655
  grid = 30 30 30
  stencil order = 5
  estimated absolute RMS force accuracy = 0.00382271
  estimated relative force accuracy = 1.1512e-05
  using double precision FFTs
  3d grid and FFT values/proc = 2475 256
Per MPI rank memory allocation (min/avg/max) = 8.199 | 8.21 | 8.217 Mbytes
Density 
   1.1589243 
   1.1589243 
Loop time of 7.82693 on 128 procs for 10000 steps with 3152 atoms

Performance: 1.104 ns/day, 21.741 hours/ns, 1277.639 timesteps/s
99.4% CPU use with 128 MPI tasks x no OpenMP threads

MPI task timing breakdown:
Section |  min time  |  avg time  |  max time  |%varavg| %total
---------------------------------------------------------------
Pair    | 1.0367     | 2.0252     | 2.9594     |  26.0 | 25.87
Bond    | 0.00075326 | 0.0008987  | 0.0017157  |   0.0 |  0.01
Kspace  | 2.9981     | 3.9198     | 4.8678     |  18.4 | 50.08
Neigh   | 0.0012404  | 0.0012566  | 0.0012751  |   0.0 |  0.02
Comm    | 0.9741     | 1.0604     | 1.1205     |   3.5 | 13.55
Output  | 2.9184e-05 | 3.6903e-05 | 7.8737e-05 |   0.0 |  0.00
Modify  | 0.64127    | 0.70973    | 0.76425    |   3.6 |  9.07
Other   |            | 0.1096     |            |       |  1.40

Nlocal:    24.625 ave 32 max 15 min
Histogram: 2 6 8 9 16 32 14 25 11 5
Nghost:    2825.16 ave 2855 max 2793 min
Histogram: 8 3 7 6 26 33 28 11 1 5
Neighs:    8926.16 ave 13458 max 4337 min
Histogram: 1 3 10 24 25 29 15 15 5 1

Total # of neighbors = 1142548
Ave neighs/atom = 362.484
Ave special neighs/atom = 1.90355
Neighbor list builds = 4
Dangerous builds = 0
timestep 0.1
run ${Ninvtpre}
run 10000
PPPM initialization ...
  extracting TIP4P info from pair style
  using 12-bit tables for long-range coulomb (../kspace.cpp:321)
  G vector (1/distance) = 0.309655
  grid = 30 30 30
  stencil order = 5
  estimated absolute RMS force accuracy = 0.00382271
  estimated relative force accuracy = 1.1512e-05
  using double precision FFTs
  3d grid and FFT values/proc = 2475 256
Per MPI rank memory allocation (min/avg/max) = 8.199 | 8.21 | 8.217 Mbytes
Density 
   1.1589243 
   1.1589243 
Loop time of 7.75349 on 128 procs for 10000 steps with 3152 atoms

Performance: 11.143 ns/day, 2.154 hours/ns, 1289.741 timesteps/s
99.4% CPU use with 128 MPI tasks x no OpenMP threads

MPI task timing breakdown:
Section |  min time  |  avg time  |  max time  |%varavg| %total
---------------------------------------------------------------
Pair    | 1.2044     | 2.0307     | 2.7432     |  20.5 | 26.19
Bond    | 0.00074485 | 0.00089262 | 0.0013247  |   0.0 |  0.01
Kspace  | 3.1462     | 3.8417     | 4.6344     |  14.7 | 49.55
Neigh   | 0.014489   | 0.014639   | 0.01477    |   0.1 |  0.19
[...]
98160000    300.13325    298.14184    282.10524   -19.668417   -19051.197    1924.3711   -17126.826 
98170000    290.54188    297.98141    580.65595   -21.911241   -19147.427    1862.8739   -17284.553 
98180000    292.86985    298.62865    395.01223   -16.826847   -19166.152    1877.8002   -17288.351 
98190000    292.36569    298.23784   -271.39039   -22.708758   -19133.735    1874.5676   -17259.167 
98200000    301.87778    298.07611    280.41814   -55.905629   -19004.255    1935.5565   -17068.699 
98210000    298.57215    297.88897    240.82968   -24.272709   -19114.748    1914.3618   -17200.387 
98220000    305.97151    298.28412   -224.38494    -41.65141    -19083.69    1961.8044   -17121.886 
98230000    297.81707    297.84144     377.0589    11.455731   -19166.107    1909.5204   -17256.587 
98240000     297.3618    297.84016   -351.53907   -58.165081   -19143.152    1906.6013   -17236.551 
98250000    301.97504    298.19126    194.51446    13.376812   -19165.473    1936.1801   -17229.292 
98260000    295.10924    298.05852    120.19489    60.175229   -19127.713    1892.1586   -17235.554 
98270000    298.27444    297.68924    90.737704   -90.822426   -19102.149    1912.4529   -17189.696 
98280000    298.74897    298.87526    727.61671    54.617413    -19141.74    1915.4955   -17226.245 
98290000     293.4867    297.41571    166.38638   -119.38545   -19064.655    1881.7553   -17182.899 
98300000      297.565    298.29021    562.18718   -10.397647   -19022.085    1907.9042   -17114.181 
98310000    294.66732    298.09324    712.41511   -17.385943   -19034.866    1889.3251   -17145.541 
98320000    302.18969    297.94042   -311.58352    26.094418   -19147.008    1937.5564   -17209.451 
98330000    296.24759    298.05559     241.5038   -6.9342041   -19120.073    1899.4573   -17220.616 
98340000     298.4345    298.34779   -268.84561   -30.533257   -19074.062    1913.4792   -17160.583 
98350000    301.45041     298.0885    381.04577    41.006303   -19048.257    1932.8163   -17115.441 
98360000    298.06753    297.76774    -496.5047    27.146354    -19087.37    1911.1263   -17176.243 
98370000    304.07471    298.26959    742.19981   -30.565609   -19028.368    1949.6426   -17078.726 
98380000    287.87953    297.62121    31.250102   -70.861338   -19097.161    1845.8036   -17251.357 
98390000    309.94287    298.30963   -586.08953   -11.920569   -19098.943    1987.2676   -17111.676 
98400000     292.3949    297.82478    395.33606    71.375887   -19063.855     1874.755     -17189.1 
98410000    300.16302     297.9938    678.12029   -25.099266   -19141.619    1924.5619   -17217.057 
98420000    304.40177    297.70933   -123.04092   -32.005577   -19058.406    1951.7396   -17106.666 
98430000    301.50869    298.28695    834.51777   -40.487975   -19125.452      1933.19   -17192.262 
98440000    294.16805    297.53756    265.42332    150.06489    -19213.28    1886.1239   -17327.156 
98450000    304.16426    298.12287   -508.56637   -88.702689   -19055.398    1950.2168   -17105.181 
98460000    304.58171    297.80857    -196.8713   -143.85177    -18983.39    1952.8934   -17030.496 
98470000    290.77142    297.97116     201.8712   -61.238569   -19128.608    1864.3456   -17264.263 
98480000    292.25426    298.05117   -142.73872   -23.952852   -19124.913    1873.8532   -17251.059 
98490000    291.54122    297.87835    133.82261    29.292494   -19117.936    1869.2814   -17248.654 
98500000     297.1075    297.61334    400.42122    12.177611    -19091.78    1904.9708   -17186.809 
98510000    293.49126    298.27213    519.30704    60.337694   -19090.437    1881.7845   -17208.652 
98520000    305.67593    297.67836     887.6909   -17.443014   -19124.203    1959.9092   -17164.293 
98530000      298.988    298.04384    348.81899   -37.791406   -19071.722     1917.028   -17154.694 
98540000    300.63822    297.68364    -154.6294    31.956451   -19048.469    1927.6088    -17120.86 
98550000    292.27283     298.0857   -136.31162    71.949188   -19075.825    1873.9722   -17201.853 
98560000    298.05458    298.11367   -725.54647    25.343845   -19010.957    1911.0432   -17099.914 
98570000    297.29671    297.96304    485.17537    55.662945   -19071.324     1906.184    -17165.14 
98580000    298.22879    298.27652    184.96228    112.33711   -19040.339    1912.1602   -17128.179 
98590000     297.6662    297.87045     558.5629    18.996532   -19123.696    1908.5531   -17215.142 
98600000    294.61481    298.20671    78.781979   -22.083296   -19040.861    1888.9884   -17151.873 
98610000    303.19083    298.14539    100.81463     43.37523   -19109.208    1943.9755   -17165.233 
98620000    304.16799    297.61591    641.80408    164.25141   -19063.948    1950.2407   -17113.707 
98630000    296.02465    298.34913   -352.80623    90.235629   -19134.697    1898.0279   -17236.669 
98640000    309.96051    297.86735   -140.44811    42.285855   -19077.482    1987.3807   -17090.101 
98650000    298.43504    298.06011   -724.21232    19.623628   -19138.314    1913.4826   -17224.831 
98660000    303.67563    298.10971     81.26095   -53.029647   -19098.304    1947.0839    -17151.22 
98670000     303.5211    297.81909    390.56498   -64.212541     -19102.6    1946.0931   -17156.507 
98680000    298.90484     297.9412    129.55519     93.67887   -19072.952    1916.4949   -17156.457 
98690000    298.17453    298.26671    448.93539    23.838634   -19159.123    1911.8123    -17247.31 
98700000    303.44415    297.83561    440.78862   -92.301289   -19041.972    1945.5997   -17096.373 
98710000    297.93066    298.25257   -491.46432   -56.960574   -19088.837    1910.2487   -17178.588 
98720000    305.59492    297.93685   -184.26357    -18.76385   -19057.013    1959.3898   -17097.623 
98730000    296.79243    298.35538   -16.002867   -8.9766862   -19040.968    1902.9507   -17138.018 
98740000    295.07405    298.30964   -195.52576    21.027832   -19104.305    1891.9329   -17212.372 
98750000    299.76913    297.45187    487.22761    23.426918   -19112.935    1922.0365   -17190.898 
98760000     297.5941    297.96227    1022.9231   -1.4132728   -18984.497    1908.0907   -17076.407 
98770000    299.24131    298.36952    342.78519     76.34877   -19042.635    1918.6522   -17123.982 
98780000    298.97922     297.9316    -345.9118    117.46665   -19165.228    1916.9717   -17248.256 
98790000    300.00194    298.22164   -56.918446    140.67807   -19197.528    1923.5291   -17273.999 
98800000    296.03566    298.11307    413.92845    1.7916978   -18994.691    1898.0985   -17096.592 
98810000    294.61542    297.90702   -223.65579   -9.4539185   -19117.439    1888.9923   -17228.447 
98820000    306.75675    297.93378   -314.43011    16.682245   -19065.631    1966.8391   -17098.792 
98830000    294.70395    297.96583    236.89959    28.557251    -19109.99      1889.56    -17220.43 
98840000    300.72914    298.15529     145.7628    110.75816   -19105.737    1928.1918   -17177.545 
98850000    303.32131    298.24851    113.60539    1.2955794    -19090.02     1944.812   -17145.208 
98860000    306.19361    298.13906   -391.86463   -96.025874   -19065.079    1963.2285    -17101.85 
98870000    299.81273    298.26579   -87.537235    1.6846438    -19050.96     1922.316   -17128.644 
98880000    301.96666    298.34322   -152.05069     1.210834   -19054.855    1936.1264   -17118.729 
98890000    306.31406    298.02526    -448.6701    38.158103   -19128.755    1964.0007   -17164.755 
98900000    295.13762    297.90577    72.036952   -33.367987   -19097.187    1892.3405   -17204.846 
98910000    296.19885    298.02079    859.19381   -85.381784   -19061.607    1899.1448   -17162.462 
98920000    297.09116    298.33444   -221.06911    27.402104    -19164.62    1904.8661   -17259.754 
98930000    313.22821    297.93243    177.73585    -70.08053   -19066.654    2008.3323   -17058.322 
98940000    311.21733    298.16937    237.89257    64.124902   -19036.614    1995.4392   -17041.175 
98950000    297.17567    298.50169    165.20585    30.140971   -19206.707    1905.4079   -17301.299 
98960000    302.03752    297.96698    16.847425    17.254217   -19046.655    1936.5808   -17110.074 
98970000    294.26587    298.72356   -148.77698    2.9099638    -19085.74     1886.751   -17198.989 
98980000    297.92362    297.64341   -268.65715   -17.602167   -19137.654    1910.2036    -17227.45 
98990000    290.45276    298.09386    -159.9233   -79.685642   -19100.961    1862.3025   -17238.658 
99000000    285.14895     297.7482    11.257658   -39.963063    -19076.85    1828.2959   -17248.554 
99010000    299.48521    297.88721    368.80569   -4.8594991   -19072.458     1920.216   -17152.242 
99020000    302.28906    298.24427   -199.30527   -69.162439   -19099.113    1938.1935   -17160.919 
99030000    297.82394    297.21349    374.32158    97.224875   -19072.309    1909.5645   -17162.745 
99040000    297.45847    297.91651   -226.74923    46.521924   -19109.211    1907.2211    -17201.99 
99050000    296.73938    298.12287   -465.00603   -79.838182    -19128.86    1902.6105   -17226.249 
99060000     293.8303    298.43493   -17.674372   -36.365674   -19063.887    1883.9583   -17179.928 
99070000    295.83102    298.18158    -370.3214   -77.265921   -18987.559    1896.7864   -17090.772 
99080000    296.18874    298.24309   -9.4876783    35.117944   -19006.734      1899.08   -17107.654 
99090000     289.9054    297.73745   -426.85572    -98.30762   -19015.802     1858.793   -17157.009 
99100000    306.85309    297.90262   -551.22128    2.6513443   -19130.399    1967.4568   -17162.942 
99110000     294.0317    297.81928   -787.32645   -25.953608   -19126.313    1885.2497   -17241.063 
99120000    303.77036    297.91137    222.84557   -109.00859   -18983.525    1947.6912   -17035.834 
99130000    291.88933    297.65288    -269.6585    -56.52646   -19053.266    1871.5133   -17181.753 
99140000    296.00204    298.39168    -551.0621   -44.054077   -19110.089    1897.8829   -17212.206 
99150000    301.28882    298.14571   -107.97846    48.574294    -19079.54    1931.7803    -17147.76 
99160000    298.29822    297.82384   -490.97881    21.109428   -19031.297    1912.6054   -17118.692 
99170000     302.1388    297.96327   -43.698499    50.904007   -19096.559    1937.2301   -17159.329 
99180000    300.73794    298.07931   -282.91376    9.1588525   -19009.283    1928.2482   -17081.035 
99190000    295.50027     297.7947   -7.2447388    72.598533   -19127.405    1894.6657    -17232.74 
99200000    300.85759     298.4503   -6.2814046   -45.707363   -19012.115    1929.0154     -17083.1 
99210000    298.92785    297.78897    206.44563   -42.344446    -19052.95    1916.6424   -17136.308 
99220000    299.05151    298.38723    52.783439    1.5599754   -19047.311    1917.4353   -17129.876 
99230000      301.977    298.40306   -62.988547    18.641929   -19032.339    1936.1927   -17096.146 
99240000    297.51305    297.63827    68.036829   -21.165337   -19082.986    1907.5711   -17175.415 
99250000    291.30613    298.38158    366.53906   -71.397732   -19105.191     1867.774   -17237.417 
99260000    290.90251    297.87495   -606.26871   -60.723517   -19040.051    1865.1862   -17174.865 
99270000    301.21026    298.29665    125.18741    36.288484    -19008.46    1931.2766   -17077.183 
99280000    290.18338    297.80326    -312.9924   -32.043981    -19044.97    1860.5753   -17184.395 
99290000    304.84114    297.79857    280.02449   -83.238051   -19136.341    1954.5568   -17181.784 
99300000    291.82543    297.79187    340.71493    49.638609   -19116.684    1871.1036    -17245.58 
99310000    294.40326    298.31619   -101.55466   -35.116691   -19093.104     1887.632   -17205.472 
99320000     305.2015    298.02966   -94.332188   -16.341325   -19030.229    1956.8673   -17073.362 
99330000    298.91712    298.03233   -15.264459    24.960381   -19077.019    1916.5736   -17160.446 
99340000    297.27669    297.92929   -25.771638   -57.478759    -19066.88    1906.0556   -17160.824 
99350000    305.77913    297.89223    293.93134    44.020037   -19131.046    1960.5709   -17170.475 
99360000    307.87326    298.54397   -430.41166   -61.221124   -19033.634    1973.9979   -17059.636 
99370000    299.08738    298.07163   -658.24108   -92.484496   -19172.642    1917.6653   -17254.977 
99380000    304.90535    297.70161   -414.37244   -28.126691   -19071.281    1954.9685   -17116.313 
99390000    295.10945    298.21639    329.19274    42.662073   -19054.929    1892.1598   -17162.769 
99400000    297.57583    298.05107    145.78465   -44.303831   -19163.807    1907.9736   -17255.834 
99410000    294.56919    298.11199   -805.20533     24.44763   -19006.547    1888.6959   -17117.851 
99420000    306.18587    297.90524    -44.13603   -69.506679    -19031.57    1963.1788   -17068.391 
99430000    301.91706     298.0588    21.614268   -35.960234   -19067.387    1935.8084   -17131.579 
99440000    300.74626    298.44831   -114.03988    18.975086   -19066.254    1928.3015   -17137.953 
99450000    294.32228    297.85459   -386.41971   -35.415343   -19058.929    1887.1127   -17171.816 
99460000    290.42183    298.40219   -428.06973   -11.161605   -19023.906    1862.1042   -17161.802 
99470000    290.44628    297.62933    313.19145   -49.167138   -19067.234     1862.261   -17204.973 
99480000    296.95199     298.1016    268.14165    7.3065115   -19001.869    1903.9738   -17097.895 
99490000    295.77891    297.66129    220.98491   -146.10922   -19118.629    1896.4522   -17222.176 
99500000    307.46683    297.31545    -225.2197    105.60526   -19094.429     1971.392   -17123.037 
99510000    301.36094    297.97578    1094.9914   -32.605577   -19058.513    1932.2427   -17126.271 
99520000    294.88185    298.35363    80.247876   -130.64946   -18959.838    1890.7006   -17069.137 
99530000    301.31104     298.1929    381.77697    17.401398   -19031.555    1931.9227   -17099.632 
99540000    294.30893    298.02375    321.99075   -32.908058   -19063.594    1887.0271   -17176.567 
99550000    307.94323    297.72816    825.03462    23.819578   -19136.979    1974.4465   -17162.532 
99560000    296.60684     297.9373   -107.33223    10.816031   -19060.841    1901.7607   -17159.081 
99570000    293.64963    297.90333    23.962941   -18.104789   -19020.333    1882.7999   -17137.533 
99580000    301.73397    297.55293   -96.583587    -76.08551   -19017.181    1934.6344   -17082.547 
99590000    293.65081     298.4687   -393.55272   -119.60803    -19146.93    1882.8075   -17264.123 
99600000    291.30827    297.90374    1.7994294   -21.626862   -19074.783    1867.7878   -17206.996 
99610000    294.71122     297.1687   -216.13422     22.84694   -19160.712    1889.6065   -17271.106 
99620000    290.93236    298.03894   -132.48478    38.009875   -19084.017    1865.3775   -17218.639 
99630000    306.47497    298.13563     27.79378   -63.052962   -19098.898    1965.0324   -17133.865 
99640000    299.61479    297.67097    641.93076    125.31555   -19047.488    1921.0469   -17126.441 
99650000    291.29662     298.0725     192.4017   -11.123911   -19167.109    1867.7131   -17299.396 
99660000    302.14369    297.93764   -352.39001     5.983632   -19117.775    1937.2615   -17180.514 
99670000    300.08024    298.17789    268.23471   -18.793874   -19077.809    1924.0312   -17153.777 
99680000    311.55938    298.30906    477.82369   -25.749491   -18975.709    1997.6323   -16978.077 
99690000    294.47612    298.20584   -366.32891   -101.39514    -19052.84    1888.0992   -17164.741 
99700000    300.23068    297.90484     287.0388   -92.717477   -18973.762    1924.9958   -17048.766 
99710000    289.56929    298.39358   -45.539661    36.981668   -19010.779    1856.6379   -17154.141 
99720000    291.95774    297.87002    55.111157    32.565613   -19083.012     1871.952    -17211.06 
99730000    286.59645    297.85821   -693.39427   -58.837538   -19115.995    1837.5769   -17278.418 
99740000    302.82065    297.85512    199.14468    36.175578   -19084.722    1941.6019    -17143.12 
99750000    301.82788    297.84205   -133.94713    75.064243   -19056.741    1935.2366   -17121.504 
99760000    306.22633     298.0869    166.82691    104.49866   -19126.403    1963.4382   -17162.964 
99770000    306.75397    298.19914   -69.091652   -69.696711    -18968.96    1966.8213   -17002.138 
99780000    311.00367    297.90151    66.805595    23.585183   -19066.997    1994.0692   -17072.928 
99790000    297.07604    298.32785    64.705128   -28.524194   -19171.048    1904.7691   -17266.279 
99800000    297.40371    298.39745    303.19315     16.18018   -19134.214    1906.8701   -17227.344 
99810000    294.52448    298.08635    174.29302    36.896714   -19083.578    1888.4092   -17195.169 
99820000    297.63037    298.60863    70.772241   -5.9415681   -19167.252    1908.3233   -17258.929 
99830000    297.90523    297.90649   -541.63168   -66.015553   -19090.143    1910.0856   -17180.057 
99840000    298.22991    297.62444    -40.71791    28.576039    -19058.93    1912.1674   -17146.763 
99850000    292.03886    298.29626      91.1052    87.353002   -19104.864    1872.4721   -17232.391 
99860000    305.18129    298.33069   -563.13795    15.589983   -19112.079    1956.7377   -17155.341 
99870000    304.88772    297.86436   -739.90035    1.9678814   -19068.191    1954.8554   -17113.335 
99880000    297.53877    297.98892   -88.636703   -116.50008   -19163.217     1907.736   -17255.481 
99890000    301.70291    298.42342   -362.27865    62.104996   -19144.127    1934.4353   -17209.692 
99900000    303.98836     297.7852   -314.15557    -52.31696   -19050.667     1949.089   -17101.578 
99910000    288.29323    297.90314   -281.11934    26.182097    -19064.64    1848.4561   -17216.184 
99920000    302.03628    297.38732    332.95534    -4.026039   -19093.192    1936.5728    -17156.62 
99930000     299.1325    298.43354    565.65896    8.1012889   -19071.492    1917.9546   -17153.537 
99940000     299.2778    297.88959       300.83   -11.247559   -19128.761    1918.8862   -17209.875 
99950000    307.00536    297.97681    12.758914   -26.909062   -19060.296    1968.4331   -17091.863 
99960000    305.74133    297.74391   -865.12362   -34.519303   -19081.805    1960.3285   -17121.476 
99970000    293.80678    298.34401   -616.41808   -35.051508   -19035.122    1883.8075   -17151.314 
99980000    294.09596    298.57324    -74.78218   -151.86959   -19087.545    1885.6617   -17201.883 
99990000    294.11299    297.95504   -668.43916    40.207384   -19066.996    1885.7708   -17181.225 
100000000     298.9988    298.34629    672.07136    21.351684   -19045.511    1917.0973   -17128.414 
Loop time of 91159.7 on 128 procs for 100000000 steps with 3152 atoms

Performance: 189.557 ns/day, 0.127 hours/ns, 1096.976 timesteps/s
99.3% CPU use with 128 MPI tasks x no OpenMP threads

MPI task timing breakdown:
Section |  min time  |  avg time  |  max time  |%varavg| %total
---------------------------------------------------------------
Pair    | 19015      | 22760      | 25950      |1152.6 | 24.97
Bond    | 8.992      | 10.416     | 15.696     |  34.3 |  0.01
Kspace  | 38789      | 42201      | 45887      | 852.0 | 46.29
Neigh   | 2890.3     | 2912.4     | 2936.2     |  19.8 |  3.19
Comm    | 11331      | 12186      | 12856      | 326.1 | 13.37
Output  | 4.2594     | 86.828     | 102        | 168.0 |  0.10
Modify  | 8908       | 9485.7     | 10084      | 326.0 | 10.41
Other   |            | 1518       |            |       |  1.67

Nlocal:    24.625 ave 36 max 18 min
Histogram: 10 12 33 23 13 22 7 5 1 2
Nghost:    2826.78 ave 2856 max 2797 min
Histogram: 3 5 11 21 26 18 21 13 7 3
Neighs:    8924.7 ave 14298 max 5811 min
Histogram: 9 18 18 31 23 16 10 1 1 1

Total # of neighbors = 1142362
Ave neighs/atom = 362.424
Ave special neighs/atom = 1.90355
Neighbor list builds = 8625510
Dangerous builds = 0

quit
