3152
Atoms. Timestep: 0
O 30.8606 29.9736 24.0366
H 30.5128 29.0862 24.1252
H 31.2244 30.176 24.8985
O 23.6244 30.7776 4.30849
H 23.1415 31.5465 4.61146
H 24.5387 31.0605 4.28967
O 5.28808 24.3969 8.68559
H 6.09928 24.8627 8.48258
H 4.64643 25.0896 8.84259
O 19.0983 4.71502 5.11707
H 19.7681 5.2708 4.71861
H 18.8236 4.12787 4.4128
O 29.0271 8.73532 3.87629
H 28.5316 8.45373 3.10722
H 28.8788 9.67972 3.92473
O 19.7884 23.9817 18.4244
H 20.2953 23.8741 17.6196
H 18.877 23.8839 18.1489
O 32.7637 17.8104 2.1507
H 32.2208 18.172 2.85125
H 32.3225 16.9988 1.89985
O 30.5967 4.71183 11.619
H 30.6263 4.29998 12.4826
H 31.5154 4.81987 11.3731
O 32.51 27.6151 28.4678
H 32.4381 26.809 28.9789
H 31.7265 27.6214 27.918
O 32.4373 15.0192 12.0321
H 0.821364 15.6035 12.034
H 32.2788 14.8286 12.9566
O 28.4013 10.6084 11.2361
H 27.5748 10.5076 11.7084
H 28.1516 10.6036 10.312
O 7.62659 3.91969 19.4186
H 7.23582 4.78808 19.3215
H 8.5687 4.07051 19.3417
O 0.803223 31.3081 13.2261
H 1.04364 32.1447 12.8278
H 32.7117 31.5487 14.027
O 19.1446 5.63799 16.4361
H 18.2884 5.99323 16.6747
H 19.6841 6.40909 16.2612
O 7.94377 30.9369 5.70904
H 7.6043 30.096 6.01532
H 8.79596 31.0218 6.1366
O 1.41186 5.70228 23.223
H 2.22005 5.96933 22.7851
H 1.70575 5.22674 24
O 28.0616 11.2888 3.31642
H 28.4918 11.3812 2.46636
H 28.1665 12.1443 3.73276
O 5.53801 31.6061 4.41745
H 6.47803 31.5889 4.59719
H 5.12807 31.5956 5.28236
O 16.4491 17.6583 6.00196
H 15.8311 17.8826 5.30628
H 16.497 18.4461 6.54354
O 15.0723 0.889472 29.7269
H 14.6068 1.3586 29.0345
H 15.9795 1.18459 29.6488
O 9.49702 6.57668 30.2694
H 10.0067 6.8878 31.0175
H 8.61517 6.91626 30.4219
O 30.8283 32.2812 10.0329
H 30.166 32.1269 9.35929
H 30.579 0.742594 10.4277
O 17.1028 10.7757 21.0951
H 17.298 10.6147 22.0182
H 16.1691 10.5828 21.01
O 17.903 13.8683 23.9259
H 18.2505 12.9876 24.0663
H 17.7601 13.9222 22.981
O 14.3879 21.0484 0.814236
H 13.9557 21.9018 0.847113
H 14.5393 20.8918 32.2563
O 18.7171 25.8296 1.25631
H 18.4646 25.951 2.17159
H 17.9906 26.2007 0.75566
O 9.79369 30.3473 14.9673
H 9.44293 30.0926 14.1139
H 10.3684 31.0892 14.7788
O 5.81342 9.51587 18.4489
H 5.78713 9.7729 17.5272
H 5.78879 8.55913 18.432
O 3.90855 31.9678 29.4228
H 4.72669 31.4821 29.5275
H 4.17695 32.8175 29.0732
O 25.17 23.2892 28.4503
H 25.0084 23.7639 27.635
H 25.9909 22.8214 28.297
O 32.5879 10.3569 12.4515
H 32.4346 9.71646 11.7568
H 32.784 9.82911 13.2256
O 14.957 12.6894 21.4798
H 14.849 13.5703 21.8385
H 15.8544 12.6742 21.1469
O 23.4399 26.5537 25.5474
H 22.9492 26.0647 24.8869
H 23.7668 27.3238 25.0823
O 18.0126 22.9885 14.6444
H 17.5779 23.7233 14.2116
H 17.8012 23.0969 15.5716
O 18.3817 18.5209 4.2062
H 17.8145 19.0333 3.63009
H 17.8087 18.2404 4.91975
O 27.2576 7.85369 1.86461
H 26.5444 8.48444 1.96301
H 26.9888 7.10293 2.39407
O 16.4324 12.0089 14.5024
H 15.801 12.3507 13.8693
H 17.1258 11.6245 13.9661
O 5.46449 4.45991 32.7994
H 5.19209 4.97271 32.0385
H 4.75668 3.82876 32.9294
O 21.7454 25.4017 20.6531
H 21.7214 26.0569 21.3506
H 22.1221 25.8628 19.9037
O 4.65313 9.15142 13.7351
H 4.09796 8.51087 14.1798
H 5.11499 9.601 14.4428
O 20.7925 22.9141 15.602
H 20.1361 23.2128 14.9726
H 21.432 23.6254 15.6375
O 1.73799 1.89478 23.9095
H 1.27273 2.66763 23.5894
H 1.5275 1.20854 23.2762
O 19.42 17.7664 8.5402
H 19.5102 16.9815 7.99973
H 20.3056 17.9414 8.85877
O 29.5954 8.35335 12.0339
H 29.1308 9.15098 11.7805
H 29.8178 8.48754 12.9552
O 30.2027 2.36161 10.6775
H 30.4332 3.18872 11.1006
H 30.1645 2.57182 9.7445
O 30.538 13.6975 31.2461
H 30.017 13.2454 31.9098
H 30.66 13.0481 30.5535
O 6.81687 7.41112 25.0203
H 7.24067 8.23049 25.2758
H 5.91338 7.65918 24.8243
O 11.2219 28.5575 31.9414
H 10.3906 28.8535 31.5705
H 11.5943 29.339 32.3497
O 27.2143 20.6198 16.3092
H 27.84 20.969 15.6746
H 26.3562 20.8316 15.9418
O 3.07544 28.2665 12.7675
H 3.8076 27.7142 13.0416
H 2.35375 27.6544 12.6237
O 8.93993 6.98947 1.4705
H 9.77844 7.36028 1.19549
H 8.43457 7.74155 1.77906
O 28.6084 17.5706 3.40242
H 27.7435 17.4392 3.79084
H 29.2124 17.5353 4.14413
O 25.2941 17.4117 32.1634
H 24.417 17.628 32.4799
H 25.799 18.2154 32.2877
O 30.5324 26.4109 26.8953
H 30.809 25.5771 26.5152
H 29.5782 26.4045 26.8193
O 24.0281 7.84684 31.905
H 23.5863 7.43002 32.6448
H 24.687 7.20972 31.6289
O 7.11553 1.63623 26.8917
H 6.39588 1.87295 27.4768
H 7.74111 1.17888 27.4536
O 17.7195 3.72886 15.0029
H 17.2493 4.50802 14.7062
H 18.4785 4.07174 15.4746
O 31.0548 12.4462 9.84689
H 31.8773 12.0964 9.5044
H 30.3967 11.7961 9.60104
O 9.39217 25.8857 19.4392
H 9.34481 25.2344 20.139
H 8.47865 26.0897 19.239
O 18.1223 11.3068 12.6092
H 18.6767 10.7023 13.1027
H 18.7358 11.9242 12.2109
O 29.3041 19.9121 26.5863
H 28.8045 20.6875 26.8421
H 29.5484 19.4998 27.4148
O 11.9352 19.2596 7.27789
H 12.364 18.6646 6.66283
H 12.5206 19.2852 8.03479
O 18.7135 29.0931 13.0092
H 19.0183 30 12.9809
H 19.1662 28.665 12.2825
O 7.61835 7.07272 13.4302
H 7.6365 7.99329 13.1686
H 6.72487 6.78677 13.2401
O 28.2361 32.0133 20.6982
H 27.6055 31.3016 20.5879
H 28.5906 31.8856 21.5781
O 13.9832 19.1134 12.0047
H 14.6613 18.8177 12.612
H 13.6996 19.9581 12.3545
O 28.1859 31.0248 32.4936
H 27.7286 30.5796 0.832783
H 27.5086 31.1831 31.8362
O 21.0219 29.8123 20.852
H 21.82 30.2741 20.5952
H 20.6897 30.3061 21.6018
O 0.94231 10.2563 28.4582
H 1.67977 10.5556 27.9264
H 32.7258 9.83498 27.8339
O 32.1675 7.01487 32.7086
H 31.9142 7.37345 1.18499
H 31.3386 6.87507 32.2507
O 1.60131 15.8635 28.4495
H 1.68371 16.7215 28.0331
H 2.2877 15.3333 28.0445
O 28.9477 22.0688 14.9273
H 29.859 21.8725 15.1446
H 28.8759 21.872 13.9933
O 1.5756 6.66836 11.6071
H 2.35301 6.94085 11.1197
H 1.70225 7.03178 12.4836
O 26.8994 31.1164 27.2325
H 26.3926 31.5064 27.9447
H 26.6156 30.2025 27.2085
O 31.579 5.64638 7.43753
H 31.777 5.24917 8.28564
H 32.0715 6.46717 7.43616
O 24.078 1.62893 10.7515
H 24.3245 0.75371 10.4524
H 23.1791 1.74361 10.4434
O 14.776 15.5423 31.8516
H 14.7849 16.4692 32.0902
H 15.3971 15.4752 31.1264
O 10.0036 16.0275 16.2452
H 10.4526 16.5632 15.5912
H 9.2081 15.7281 15.8049
O 10.0986 15.0595 7.38822
H 9.22996 14.7997 7.08131
H 10.6514 15.0174 6.6079
O 4.12282 6.65469 4.65389
H 4.36969 6.42106 5.54871
H 3.33196 6.1436 4.48193
O 11.3398 6.56363 8.48529
H 11.271 7.5142 8.57424
H 10.4633 6.23916 8.69222
O 7.37462 12.8996 4.55804
H 6.51049 12.7238 4.18574
H 7.92133 13.1176 3.80319
O 30.1782 8.83108 14.8042
H 30.2595 8.29205 15.591
H 29.6634 9.58799 15.084
O 4.47986 30.2992 2.19637
H 4.70332 30.4939 3.10653
H 4.04924 29.4451 2.23241
O 17.421 14.4099 15.0204
H 16.724 15.0079 14.7504
H 17.1415 13.5537 14.6963
O 32.0265 0.984878 28.9722
H 32.7788 1.2072 29.5207
H 32.0655 1.60866 28.2472
O 22.1606 25.7177 29.04
H 22.0323 25.262 29.872
H 22.105 25.0286 28.3779
O 32.7221 31.9704 1.32108
H 0.916379 31.7358 2.05455
H 32.829 31.2537 0.695706
O 6.16165 1.13527 2.28786
H 5.97574 32.7372 2.82199
H 6.0192 1.87525 2.8781
O 29.2497 21.3647 31.6792
H 28.4904 20.7856 31.7446
H 29.2433 21.6672 30.7711
O 16.7219 32.4716 18.2732
H 15.7889 32.6854 18.2803
H 17.1455 0.858194 18.6707
O 20.4633 8.9375 32.1429
H 20.6107 8.1458 32.6603
H 20.5879 9.65605 32.7629
O 29.2156 17.3699 0.775275
H 28.9473 17.2483 1.68603
H 28.5449 17.9417 32.776
O 17.1135 23.5451 20.0327
H 17.1038 23.5507 19.0756
H 16.3008 23.9843 20.2835
O 20.7219 20.6199 13.9807
H 20.7028 21.3539 14.5949
H 21.5232 20.1445 14.1998
O 8.02718 7.8413 9.87934
H 8.26421 6.92326 9.74805
H 7.52644 7.84557 10.6951
O 12.3337 24.1587 31.2601
H 13.0529 24.5911 30.7997
H 12.5729 24.2145 32.1852
O 32.9507 3.33024 27.4823
H 1.08904 3.19227 28.2788
H 1.1699 3.79535 26.8925
O 14.3076 8.28335 7.75516
H 14.1698 7.92698 6.87752
H 14.0483 9.20205 7.68455
O 25.53 8.91585 27.7864
H 25.3542 9.31891 26.9362
H 25.1599 9.52735 28.4231
O 23.6562 2.78712 16.5188
H 24.1319 3.43248 15.9959
H 23.5292 2.04539 15.9272
O 5.19829 2.03187 28.8702
H 5.75882 2.19163 29.6295
H 5.01918 2.90312 28.5165
O 5.33366 15.3213 4.41159
H 5.01103 14.4615 4.68157
H 6.14987 15.4351 4.89851
O 17.5266 18.9957 18.8154
H 18.3702 18.8997 18.3732
H 17.1714 18.1076 18.8501
O 22.979 15.5233 13.3998
H 23.1571 14.7431 13.925
H 22.3602 16.0303 13.9254
O 30.4535 14.5382 7.77846
H 30.7177 13.9629 7.06047
H 30.4703 13.9773 8.55395
O 9.09669 22.5343 25.8032
H 8.2418 22.7749 25.4461
H 9.70924 22.6888 25.0841
O 3.46637 11.2436 27.5961
H 4.20918 10.9727 27.0566
H 3.38169 12.1831 27.4335
O 25.7441 16.8999 10.0408
H 25.1154 16.2104 9.82723
H 25.2032 17.646 10.2998
O 30.9622 30.3915 21.1039
H 30.6912 30.0932 21.9721
H 30.6865 29.6911 20.5126
O 26.7265 30.1934 18.2978
H 25.9476 29.7161 18.5835
H 26.4013 31.0605 18.0558
O 7.79012 13.3038 17.1586
H 7.29771 12.5683 16.7941
H 8.64797 13.2505 16.7373
O 6.38653 24.9006 11.277
H 6.98658 24.3306 11.758
H 6.01446 24.3385 10.5974
O 3.69559 16.2272 17.6304
H 4.60098 16.1893 17.322
H 3.27727 15.4591 17.2414
O 8.00857 25.0732 7.73541
H 8.62396 25.2759 8.43999
H 7.82731 25.9185 7.32448
O 28.8734 4.73868 1.08391
H 29.1025 5.12928 32.6148
H 28.1109 5.23607 1.37956
O 32.2481 4.34009 31.2164
H 32.2157 4.96664 30.4934
H 32.8886 4.70857 31.8248
O 28.2956 21.7386 4.87391
H 29.087 21.7758 4.3368
H 28.5393 21.1949 5.6231
O 23.3464 6.33946 22.2298
H 24.0836 6.71353 22.7123
H 23.5987 6.41503 21.3096
O 10.056 6.70439 19.0163
H 10.7316 6.04812 19.1866
H 9.38273 6.53204 19.6745
O 1.50692 29.4603 25.3756
H 2.43788 29.2461 25.3149
H 1.27103 29.7566 24.4965
O 24.3011 17.2158 26.1042
H 23.6087 17.6393 26.6115
H 24.3149 17.6911 25.2734
O 32.1651 5.18929 4.27529
H 32.1251 5.98816 3.7495
H 32.0872 5.49307 5.17966
O 25.9562 16.863 29.3345
H 26.8991 16.7283 29.4298
H 25.6404 16.9904 30.2291
O 29.1422 29.1438 17.096
H 29.5362 29.1992 17.9666
H 28.2445 29.4524 17.2188
O 29.8238 17.7849 5.92508
H 29.525 18.6275 6.26708
H 30.7782 17.8565 5.91085
O 29.7537 3.7912 3.68736
H 30.5107 4.24077 4.0629
H 29.6188 4.21528 2.8399
O 12.0793 31.081 32.5846
H 12.8602 31.3631 0.686781
H 12.1901 31.4441 31.7059
O 13.7543 29.4586 20.2891
H 13.6192 28.5831 19.9264
H 13.8867 30.0178 19.5236
O 5.44804 2.95655 23.9593
H 4.9835 2.19468 24.3057
H 4.99171 3.70822 24.3374
O 10.8271 3.61696 7.25838
H 10.1668 4.23813 6.95112
H 11.4395 3.53634 6.52712
O 5.87884 28.523 15.6357
H 6.8146 28.5144 15.8369
H 5.62677 27.5996 15.6268
O 17.508 14.0923 21.0126
H 17.3581 14.9175 20.5514
H 18.4422 14.1001 21.2211
O 22.2785 14.7536 28.5592
H 21.92 14.1402 29.2006
H 23.2198 14.5799 28.5611
O 7.96854 6.704 20.6958
H 7.98795 7.5647 21.1142
H 7.33322 6.79655 19.9859
O 6.07543 0.757656 20.1496
H 6.12005 32.2897 20.6024
H 5.13889 0.941163 20.0758
O 17.2883 19.149 30.1976
H 17.5732 19.5512 31.0181
H 17.1448 18.2287 30.4186
O 5.09303 17.7739 9.91294
H 5.73125 18.2883 9.41872
H 4.68879 18.403 10.5105
O 31.9927 22.5292 7.85132
H 32.1831 23.3164 7.34115
H 31.0411 22.4367 7.80369
O 25.3913 19.147 21.5832
H 26.0518 19.5903 22.1156
H 24.7445 18.8334 22.2154
O 2.94356 10.6938 12.3055
H 3.23694 10.0739 12.9732
H 1.99558 10.7467 12.4271
O 4.02075 12.5595 4.69924
H 3.35637 13.1928 4.42768
H 4.23102 12.075 3.90092
O 4.74307 24.1251 1.3783
H 4.81545 24.5017 32.8755
H 5.01898 23.2147 1.27199
O 19.537 30.1156 0.756964
H 18.8577 30.0559 32.4594
H 20.0318 29.3008 0.67102
O 11.3722 26.8979 28.7364
H 10.6726 27.5172 28.5285
H 11.9858 27.4001 29.2726
O 17.2799 25.1138 9.29369
H 17.3503 24.6372 10.1208
H 16.6778 24.5898 8.76535
O 20.8155 19.2218 20.3074
H 20.4692 19.8325 19.6567
H 20.8258 19.7215 21.1238
O 17.1945 8.05963 13.1206
H 16.3075 7.72176 13.2448
H 17.6581 7.35575 12.6669
O 21.2831 12.9477 18.8346
H 21.3808 12.294 18.1423
H 21.5829 12.5039 19.6279
O 5.24381 2.08586 9.26341
H 4.33727 2.2501 9.52314
H 5.68641 2.92456 9.39345
O 9.79324 15.0197 11.7672
H 9.56541 14.4171 11.0593
H 9.98003 15.8484 11.3262
O 8.35336 27.9864 2.2468
H 9.17016 27.8824 1.75867
H 7.93972 27.124 2.20884
O 25.1605 11.8034 4.05928
H 24.3328 12.25 3.88107
H 25.8208 12.3356 3.61549
O 21.9871 8.71998 22.3074
H 21.0524 8.83232 22.1343
H 22.0944 7.77871 22.4442
O 22.0179 10.6547 24.537
H 21.3815 10.2758 25.1434
H 22.1906 9.95784 23.9039
O 20.6098 23.4983 3.07292
H 19.917 23.7287 2.45391
H 20.6668 24.2517 3.66064
O 15.0807 20.9161 30.4264
H 15.5827 21.6243 30.0231
H 15.6412 20.145 30.3395
O 18.0482 22.5587 11.0865
H 17.761 21.6546 11.2141
H 17.6205 23.0479 11.7893
O 29.9305 7.23352 17.1983
H 30.1868 7.62177 18.0349
H 28.9986 7.43578 17.1153
O 15.5962 31.2629 5.82508
H 16.4439 31.6713 6.00065
H 15.0526 31.9742 5.48635
O 25.9992 17.3133 3.88959
H 25.1221 17.6964 3.90421
H 25.9363 16.5938 3.26145
O 18.0093 11.4809 0.835783
H 18.0522 10.5781 1.15108
H 17.4966 11.9427 1.49914
O 21.5012 30.9036 31.4967
H 21.3555 31.8488 31.4559
H 20.8233 30.5817 32.0908
O 20.3536 22.8779 32.215
H 20.6237 23.7878 32.0909
H 20.6903 22.4204 31.4446
O 5.59121 22.509 23.2771
H 6.32789 21.9846 22.9632
H 5.99782 23.268 23.6952
O 30.232 28.3447 19.5953
H 30.9511 27.9281 20.0703
H 29.5915 27.645 19.4674
O 9.22262 25.6873 25.7562
H 9.9169 25.2505 26.2496
H 8.56533 25.0064 25.6128
O 8.07678 9.17971 21.421
H 8.44091 9.11466 22.3039
H 7.27507 9.69136 21.5292
O 9.36256 32.8413 11.2509
H 9.42373 1.21697 10.6591
H 10.2475 32.7393 11.6012
O 8.46319 17.3666 27.9723
H 9.0418 17.2303 27.2221
H 8.68647 16.6607 28.579
O 3.66813 6.45542 21.8522
H 3.88812 7.22265 21.3238
H 4.03625 5.71664 21.3675
O 8.33476 15.3311 29.8709
H 7.46112 14.9512 29.7778
H 8.93215 14.597 29.7278
O 23.8851 22.8125 8.15129
H 23.1896 23.4325 7.93197
H 24.3953 23.2544 8.83
O 27.9975 31.7286 13.1809
H 27.8682 32.5694 12.7421
H 27.1463 31.5274 13.5697
O 24.996 21.2465 14.6083
H 25.2224 21.1785 13.6808
H 24.537 20.4296 14.8038
O 16.5858 0.809626 0.76851
H 16.8614 0.909516 32.2315
H 17.3112 32.7224 1.18939
O 1.14516 20.5846 18.493
H 0.940452 19.6753 18.711
H 0.666736 20.7503 17.6807
O 1.54175 7.30602 27.2198
H 2.2776 7.77547 27.6127
H 0.796807 7.51164 27.7846
O 6.81444 19.0418 8.15228
H 7.7377 18.8172 8.03648
H 6.82081 19.9694 8.38822
O 8.70452 28.0889 9.18144
H 8.42818 27.9763 8.27195
H 8.89309 29.024 9.26093
O 14.7856 7.93614 18.2209
H 13.9139 7.66886 17.9292
H 14.6233 8.49696 18.9795
O 22.6801 19.2121 32.3016
H 22.045 19.3039 31.5913
H 23.3155 19.9112 32.1473
O 25.0915 17.241 13.3653
H 24.4269 16.5539 13.3149
H 24.9761 17.6231 14.2354
O 18.6829 2.08849 13.1286
H 18.2458 2.5778 13.8255
H 19.6169 2.20871 13.3004
O 28.0559 13.2237 13.04
H 27.5978 13.0388 13.8599
H 27.4357 12.9706 12.3562
O 24.9195 7.14074 4.81111
H 24.2476 6.47955 4.97742
H 25.3151 7.30168 5.66776
O 20.3196 14.0445 15.1444
H 20.2025 13.1417 14.8488
H 19.4593 14.4481 15.0295
O 24.8753 31.9945 0.84024
H 23.9453 32.2116 0.775076
H 25.0948 31.6207 32.361
O 2.25688 16.3731 5.6726
H 2.332 15.593 6.22214
H 2.8554 17.0054 6.07036
O 30.6288 32.0543 2.91912
H 31.3248 32.134 2.26688
H 30.6039 31.1211 3.13059
O 23.9338 27.9121 28.4129
H 23.4324 27.125 28.6256
H 23.8241 28.4799 29.1756
O 22.1633 11.8145 21.0316
H 23.0363 12.1879 20.9102
H 21.7628 12.3565 21.7114
O 27.8711 6.24559 12.9279
H 28.3285 5.69643 13.5646
H 28.5596 6.78229 12.5354
O 32.9498 27.128 24.2431
H 0.970234 26.4076 24.7345
H 1.08395 27.8984 24.4969
O 31.79 8.41796 10.5379
H 32.5017 7.93256 10.9552
H 31.0185 8.21472 11.0667
O 10.4603 9.20029 8.46977
H 10.9246 9.34532 9.29416
H 9.57933 8.93517 8.73395
O 20.1206 11.5012 7.65987
H 19.6302 10.6793 7.64396
H 19.5441 12.1159 8.11376
O 20.2973 14.8578 0.810655
H 19.8522 14.5887 32.3813
H 20.1313 15.7984 0.87346
O 18.6895 8.82783 7.13598
H 18.4702 8.70099 6.21291
H 17.879 9.14574 7.53373
O 24.9096 19.4604 28.7821
H 25.5344 20.1825 28.8497
H 25.3823 18.7013 29.1235
O 20.6489 0.877015 18.3787
H 19.895 1.26046 18.827
H 20.9232 1.54799 17.7536
O 14.3091 15.4318 22.6115
H 14.747 16.1136 23.1211
H 13.4584 15.8088 22.3872
O 7.82049 20.416 1.81312
H 7.40509 21.0312 2.41737
H 8.56425 20.8988 1.45265
O 20.7617 9.86775 11.5486
H 20.0851 10.106 10.9149
H 21.2877 9.20536 11.1005
O 16.8049 13.0864 2.38699
H 15.8749 13.2143 2.20017
H 17.2338 13.8529 2.00652
O 8.08277 6.87852 16.4643
H 7.82761 6.50597 15.6203
H 8.94433 6.50143 16.6425
O 5.13998 19.732 23.9309
H 5.17596 19.3621 23.0489
H 5.0527 18.9722 24.5065
O 21.443 16.388 21.0667
H 22.1088 16.6635 20.4365
H 20.7227 17.0057 20.9402
O 16.7278 9.76226 17.3383
H 15.8844 9.31248 17.2872
H 16.5025 10.675 17.5184
O 29.3503 16.1692 20.5186
H 28.5328 16.6558 20.4127
H 29.357 15.5497 19.789
O 23.7526 6.39122 1.93778
H 23.6769 7.206 2.43441
H 23.1954 5.77099 2.40798
O 29.6988 6.20914 31.1917
H 28.959 6.8157 31.2231
H 30.2017 6.48349 30.4248
O 5.86862 16.2739 12.067
H 5.45794 16.9326 11.5069
H 6.0864 16.7449 12.8714
O 23.3331 26.3873 18.718
H 23.0784 25.8572 17.9627
H 24.0248 25.8813 19.1441
O 27.8815 13.8467 9.36091
H 28.2798 13.2393 8.73749
H 28.5278 13.9288 10.0622
O 17.209 11.9856 5.75269
H 17.3172 11.536 6.59076
H 16.5815 11.4471 5.27065
O 8.219 10.0971 4.41728
H 8.97261 10.279 3.85584
H 7.64095 10.8501 4.29452
O 27.8159 8.26653 31.4841
H 27.7942 9.20505 31.2971
H 27.7429 8.20988 32.4368
O 7.11175 4.55726 29.9941
H 7.30793 4.3904 30.916
H 7.02077 5.50838 29.9365
O 26.5833 28.2192 9.14208
H 26.3395 27.3985 8.71412
H 25.7518 28.5956 9.43062
O 7.10945 9.00259 7.29691
H 6.3725 9.60752 7.38174
H 6.70344 8.15071 7.13666
O 4.65044 31.2044 16.0793
H 5.20187 31.9019 15.7249
H 5.18472 30.4138 16.0029
O 23.1902 20.6399 20.2288
H 22.5311 19.9458 20.2298
H 23.9794 20.222 20.5734
O 23.099 30.4884 28.2318
H 23.553 31.1661 27.731
H 23.2106 29.6916 27.7134
O 14.8485 8.09145 23.4358
H 14.9812 7.41053 24.0953
H 13.9083 8.26969 23.4607
O 29.4875 25.6029 13.8074
H 29.2362 25.8578 14.6952
H 29.8306 24.7142 13.9009
O 28.1504 15.01 28.0597
H 28.3049 15.2665 28.9688
H 28.5277 15.7213 27.5422
O 32.8433 0.950552 5.40489
H 32.9275 1.77605 5.88208
H 31.9256 0.701941 5.51543
O 9.74823 4.12413 29.5347
H 9.72467 5.07591 29.6336
H 8.86057 3.83836 29.7506
O 1.05475 19.2768 23.493
H 1.38255 18.4083 23.7261
H 32.5363 19.1216 23.1843
O 31.2435 0.854274 20.9212
H 31.5232 1.01094 20.0193
H 31.0619 32.2893 20.9565
O 6.21366 30.478 21.3025
H 6.74143 29.7744 21.6803
H 6.05415 30.2005 20.4004
O 15.3058 1.83524 15.233
H 15.9312 2.53469 15.0437
H 14.8462 1.69374 14.4054
O 18.2895 17.796 22.629
H 17.4443 17.721 23.0719
H 18.0676 18.0129 21.7235
O 10.0886 28.8187 21.198
H 9.45804 28.1123 21.058
H 10.6181 28.8293 20.4007
O 2.61403 9.62622 8.12636
H 1.76379 9.21137 7.98069
H 2.94113 9.81815 7.2475
O 19.6937 13.4149 11.6829
H 20.0173 14.2909 11.8931
H 19.3922 13.4814 10.7769
O 28.9244 0.843202 18.2962
H 28.8194 32.5324 18.9565
H 29.6025 1.41752 18.652
O 21.3583 20.4724 2.28476
H 21.9465 20.1676 1.5938
H 21.3662 21.4261 2.2032
O 13.5238 19.9041 28.3002
H 12.7564 19.6044 28.7875
H 14.0843 20.3103 28.9613
O 7.49416 16.6775 20.978
H 6.65351 17.0519 21.2413
H 8.0837 16.876 21.7055
O 14.5038 9.1785 2.37852
H 14.5741 8.22545 2.43313
H 14.1818 9.44511 3.23963
O 17.209 3.93115 29.0839
H 18.0417 4.17879 29.4857
H 17.4549 3.37153 28.3473
O 16.6876 20.3614 6.68935
H 15.9699 20.6835 6.14409
H 16.3921 20.5101 7.58755
O 20.7456 6.56242 0.89639
H 20.7392 6.57128 1.85353
H 20.0894 5.90762 0.658046
O 29.1762 27.926 22.802
H 29.9362 27.5158 22.3892
H 28.4732 27.83 22.1595
O 18.7614 2.76415 27.0582
H 19.4233 2.20213 27.461
H 19.2647 3.41866 26.574
O 20.5322 4.06288 20.0363
H 21.3776 3.93883 19.605
H 20.1262 3.19614 20.0224
O 7.00586 24.42 24.7776
H 6.14822 24.8339 24.8742
H 7.37413 24.8128 23.9862
O 32.5149 17.9591 6.11522
H 32.7219 18.875 5.9297
H 0.710379 17.4608 5.52922
O 28.2461 20.1682 7.08208
H 28.5528 20.6861 7.82644
H 27.3016 20.3212 7.05619
O 11.0539 9.67424 3.38308
H 11.5369 9.7665 4.20427
H 10.9804 8.7288 3.25275
O 11.9975 0.840615 8.7852
H 12.1721 32.5329 9.43385
H 11.3442 32.8292 8.20151
O 11.4234 22.7329 6.89274
H 11.6894 23.6465 6.78946
H 11.5484 22.347 6.02571
O 1.22684 1.44116 12.1796
H 2.05602 1.64985 12.6099
H 1.27926 1.88133 11.3313
O 23.4396 13.9704 11.2612
H 23.143 14.3062 10.4153
H 23.1946 14.6504 11.8886
O 10.5898 26.0695 1.35581
H 10.6168 25.2885 1.90858
H 11.4012 26.5352 1.55841
O 22.3743 3.6813 22.4469
H 21.6409 3.58274 21.8398
H 22.765 4.52421 22.2164
O 27.7909 26.2165 26.8331
H 27.5479 27.1351 26.7174
H 26.9851 25.7311 26.6565
O 2.61121 24.0575 5.25584
H 2.26527 23.6589 4.45726
H 2.84671 23.3149 5.81205
O 17.2454 2.27815 10.9265
H 16.7029 3.05715 11.0491
H 17.5951 2.0898 11.7974
O 4.4765 2.44517 5.86281
H 3.93969 2.96391 6.46197
H 5.1403 2.04255 6.42272
O 16.2694 12.6915 17.8312
H 16.9086 13.3791 17.6447
H 15.5062 13.1589 18.1708
O 32.9681 20.3402 26.2131
H 32.6808 19.5254 25.8009
H 32.8075 20.2063 27.1472
O 13.8356 23.1792 23.6881
H 14.0459 22.3576 23.2443
H 12.8795 23.1903 23.7322
O 24.249 6.24381 19.3123
H 23.8843 5.47186 18.8795
H 24.4395 6.85188 18.598
O 7.15378 26.1724 27.9299
H 7.76582 26.2752 27.2011
H 6.84056 25.271 27.8549
O 31.6397 15.2285 2.27426
H 31.6801 14.6086 3.00248
H 30.728 15.1991 1.98433
O 13.2018 32.2671 21.159
H 13.3404 31.3349 20.9918
H 13.8877 32.5035 21.7834
O 12.3846 10.0538 26.8341
H 12.0346 10.9138 26.6014
H 12.1336 9.48718 26.1046
O 13.1063 30.4509 13.2602
H 12.7137 29.6492 12.9146
H 13.9834 30.4729 12.8774
O 25.4411 9.82958 2.15455
H 24.5717 9.47062 2.33242
H 25.621 10.4029 2.89961
O 15.6381 15.8962 8.154
H 15.9464 16.5667 7.54443
H 16.1371 16.053 8.95565
O 3.68143 31.173 22.9018
H 4.33745 30.9785 22.2325
H 3.13943 31.8601 22.5141
O 11.688 28.211 4.56076
H 12.3657 27.6306 4.21417
H 10.8755 27.7135 4.46803
O 7.85797 13.0273 26.9407
H 8.22626 13.3923 26.1361
H 7.78499 12.0888 26.7669
O 31.7536 32.3451 15.5362
H 32.3049 31.7394 16.0315
H 31.115 31.7837 15.0966
O 10.3222 25.0409 14.6483
H 10.6707 24.402 14.0265
H 9.37457 24.9079 14.6231
O 16.8406 10.9707 8.35835
H 15.987 11.2563 8.6841
H 17.315 10.6911 9.1413
O 20.144 21.1162 18.0876
H 20.0593 22.0025 18.439
H 20.6292 21.2275 17.27
O 31.6729 18.5537 10.7627
H 32.231 18.2908 10.0309
H 32.2174 19.1488 11.2781
O 16.5905 7.92655 28.6263
H 16.7896 7.38841 29.3925
H 15.636 7.9977 28.6245
O 3.70984 18.3143 7.46267
H 2.92732 18.7772 7.7621
H 4.0083 17.8262 8.23005
O 11.7259 19.8502 16.212
H 11.1214 20.042 16.9289
H 11.3337 20.2724 15.4478
O 1.47673 16.9595 15.6569
H 1.3123 17.4005 16.4904
H 1.49033 17.6654 15.0105
O 29.4082 15.2866 17.878
H 28.5759 15.3201 17.4065
H 29.584 14.3523 17.9887
O 26.0488 22.2427 21.0846
H 26.3227 22.4324 20.1873
H 26.5733 21.4839 21.3403
O 1.21764 28.34 6.98081
H 1.17573 28.0095 7.87816
H 1.23597 29.2922 7.07641
O 15.1666 28.913 23.7569
H 14.271 29.2353 23.8582
H 15.6774 29.4218 24.3866
O 1.12509 18.888 28.6119
H 1.8604 19.311 28.1685
H 0.968722 19.4284 29.3863
O 24.1194 3.58991 24.8215
H 23.4428 3.29989 24.2097
H 24.9444 3.39348 24.3776
O 23.2886 30.1731 7.04047
H 23.0741 30.3307 6.12103
H 22.5848 29.6071 7.35751
O 16.1897 4.90013 11.4799
H 17.0337 5.35157 11.4888
H 15.7878 5.12609 12.3187
O 32.0174 6.35273 15.6619
H 32.9008 6.36169 15.2933
H 32.1458 6.1466 16.5877
O 14.4757 13.3258 12.7428
H 14.8968 14.1314 13.0425
H 13.6295 13.3165 13.1902
O 7.77253 20.0822 11.664
H 7.78153 21.0275 11.8144
H 6.84433 19.8592 11.5936
O 11.0734 32.7925 23.0481
H 10.3165 32.3006 22.7297
H 11.7297 32.6965 22.3579
O 7.09325 22.4088 17.6389
H 6.55057 21.828 18.1723
H 6.4661 22.9518 17.1614
O 7.44575 24.9264 14.5667
H 7.01367 24.305 15.1528
H 7.58828 24.4343 13.7581
O 8.16723 14.9809 13.9347
H 7.43359 14.3674 13.8931
H 8.72333 14.7405 13.1936
O 2.84561 32.8957 26.0112
H 3.73744 32.8087 25.6746
H 2.36386 0.953253 25.3058
O 24.6695 12.9764 20.5026
H 25.2426 13.0916 21.2606
H 24.9983 13.6008 19.856
O 3.88358 14.1306 1.36201
H 3.2345 13.9035 2.02785
H 3.62464 13.6244 32.9661
O 17.0379 16.2922 30.1278
H 17.4469 15.6805 29.5155
H 17.5442 16.1986 30.9347
O 23.6864 6.18874 12.0477
H 24.3409 6.70361 12.5198
H 23.3868 6.76673 11.346
O 3.30943 21.7318 31.3878
H 3.89402 21.5689 32.1281
H 2.87238 22.5555 31.6039
O 22.221 15.32 4.33429
H 21.6216 15.9739 3.97479
H 22.0305 15.3097 5.27229
O 26.2897 15.5377 1.49752
H 26.1255 16.2347 0.862369
H 25.6374 14.8678 1.29269
O 0.881434 32.7496 8.58185
H 1.35653 1.14383 8.89824
H 32.6026 32.5754 9.25965
O 1.3331 23.2826 32.3079
H 1.80176 23.2966 0.768258
H 32.7855 23.1988 32.5518
O 1.22016 11.8581 9.0589
H 1.71983 11.0454 8.98048
H 1.38905 12.3237 8.23978
O 25.5443 7.41846 13.8009
H 26.3779 7.0345 13.529
H 25.7131 8.36009 13.8336
O 5.32868 5.49721 13.4818
H 4.51531 5.82263 13.8675
H 5.04588 4.9706 12.7342
O 3.07934 13.3328 16.2981
H 2.77173 13.2437 15.396
H 3.52155 12.5044 16.4837
O 28.2269 7.643 6.28758
H 28.3542 8.24641 5.55552
H 27.9129 6.83533 5.881
O 30.5403 2.6249 22.9899
H 30.7604 2.17729 22.173
H 30.9076 3.50304 22.8889
O 6.71847 21.6116 8.78992
H 6.74332 22.1198 9.60068
H 6.39749 22.2269 8.1307
O 28.6034 10.4496 16.379
H 27.9241 10.9793 15.9616
H 29.0996 11.0716 16.9111
O 6.97691 30.2452 28.4333
H 7.24684 31.1546 28.5609
H 7.78156 29.788 28.1887
O 20.6559 20.2511 6.16438
H 21.0689 20.7122 6.89446
H 20.1611 19.543 6.57683
O 18.2902 14.5088 17.6914
H 17.8253 15.2522 18.0755
H 18.0258 14.5097 16.7715
O 20.9847 18.5857 25.432
H 21.1807 18.2074 26.2891
H 21.8371 18.6634 25.0034
O 24.7137 28.9108 20.0552
H 25.5375 28.4246 20.0886
H 24.0747 28.2781 19.727
O 32.7389 4.95439 9.9552
H 0.827887 4.12924 9.8109
H 0.899059 5.42027 10.5984
O 4.05094 18.039 31.5952
H 3.7412 18.3516 32.4453
H 3.55667 17.2339 31.4409
O 14.7594 21.1417 22.3155
H 14.0877 20.4998 22.0854
H 15.4936 20.9391 21.7357
O 18.3534 9.10052 15.1612
H 17.9614 8.74622 14.3631
H 17.6343 9.1222 15.7926
O 28.7466 13.9868 4.69211
H 28.9691 14.385 3.85059
H 29.5805 13.6622 5.03195
O 13.377 1.91156 27.4433
H 13.4003 2.35929 26.5976
H 13.4789 0.9847 27.2271
O 9.86116 10.0587 23.3356
H 9.07688 9.97031 23.8772
H 10.3401 9.24117 23.4716
O 2.46026 5.38009 29.0841
H 1.79614 5.8614 28.5906
H 3.1177 5.14034 28.431
O 32.0766 8.48102 21.9594
H 32.7114 8.6324 21.2592
H 31.6439 9.32655 22.078
O 8.58804 30.5819 17.5846
H 8.77616 30.4607 16.654
H 9.36706 30.2514 18.032
O 21.5783 17.1079 15.105
H 21.8117 17.9721 15.4439
H 20.7294 17.2371 14.6821
O 9.29271 31.525 21.6201
H 9.64351 30.6346 21.6387
H 8.444 31.4577 22.0576
O 14.947 6.37262 25.6452
H 14.3103 5.70131 25.8906
H 15.6959 6.21462 26.22
O 26.0039 5.9483 30.9778
H 26.6839 6.57926 31.214
H 25.9677 5.98108 30.0219
O 1.18124 28.7745 3.14824
H 0.969752 28.3354 2.32439
H 32.7145 29.0999 3.46949
O 7.05335 16.5139 6.31589
H 7.27525 17.1531 6.99293
H 7.89772 16.2436 5.95508
O 14.7872 22.2748 4.88139
H 14.8346 22.9458 5.56244
H 13.8656 22.0169 4.86229
O 5.95632 1.11533 15.1988
H 5.17541 1.38678 14.7163
H 6.61562 0.96269 14.5218
O 5.01482 20.0123 11.8833
H 4.51716 19.9251 12.6963
H 4.88049 20.9216 11.6161
O 13.5682 17.4826 18.8099
H 13.4867 18.1531 19.4881
H 14.44 17.1106 18.9436
O 6.17331 29.6228 18.7202
H 7.09955 29.7767 18.5341
H 5.96541 28.8145 18.2515
O 3.87044 6.29296 31.1946
H 3.48124 6.09253 30.3433
H 3.52893 7.15916 31.4166
O 10.8159 22.6995 23.5937
H 10.5197 23.0112 22.7385
H 10.992 21.768 23.4618
O 17.0756 6.59035 18.5992
H 16.181 6.86035 18.3918
H 17.0418 5.63378 18.6075
O 29.9448 7.97036 20.1624
H 29.3957 7.3602 20.6548
H 30.7321 8.07032 20.6977
O 15.008 10.1896 5.44934
H 14.0699 10.315 5.5928
H 15.135 9.24258 5.50594
O 20.3908 21.4771 29.8362
H 21.0635 21.5978 29.166
H 19.7676 22.1869 29.6812
O 26.1021 24.1131 23.3233
H 26.9679 24.4393 23.0779
H 25.4937 24.7728 22.9903
O 12.0112 21.9689 4.37552
H 11.5103 21.1535 4.35458
H 11.4768 22.5916 3.88259
O 5.37402 17.5988 2.90326
H 5.24413 16.7758 3.3745
H 4.49057 17.8833 2.66922
O 25.0572 27.8785 16.7149
H 24.6384 27.3252 17.3742
H 24.3437 28.4066 16.3566
O 32.3202 10.2484 19.5055
H 31.7891 10.8189 18.9498
H 32.6527 10.8252 20.1933
O 10.848 6.72525 3.43193
H 11.1417 5.83701 3.63439
H 10.0254 6.60378 2.95781
O 10.282 16.7944 31.0732
H 9.39633 16.4908 30.8741
H 10.2655 16.9838 32.0113
O 1.31231 27.0996 32.796
H 2.23658 27.1379 0.667786
H 1.09453 27.996 32.5408
O 11.7442 23.2647 12.7832
H 12.6701 23.0975 12.9594
H 11.6012 22.9185 11.9023
O 1.17798 30.6066 16.8055
H 1.01374 29.7985 17.2914
H 1.93883 30.9956 17.2369
O 2.46102 5.02504 3.45948
H 2.19601 4.85811 2.55497
H 1.65378 4.93679 3.96624
O 19.2554 9.79814 18.0217
H 18.3369 9.79192 17.7524
H 19.6527 9.07513 17.5362
O 17.4323 22.8632 1.81779
H 17.8193 23.5211 1.24019
H 17.6261 22.0274 1.39335
O 12.7319 4.01866 14.7765
H 12.6806 3.51482 15.5887
H 13.6155 4.38681 14.7778
O 28.5231 24.3702 6.10404
H 28.2482 25.13 5.59079
H 28.1564 23.6196 5.63682
O 1.15797 29.6474 22.4784
H 32.8097 29.5703 21.8553
H 1.55303 30.4973 22.2839
O 5.6723 32.6472 25.1453
H 6.05572 31.8147 24.8694
H 6.25206 32.9599 25.8398
O 3.57304 8.7244 20.1664
H 2.79997 8.61834 19.612
H 4.26617 8.9922 19.563
O 21.4919 20.9978 9.03147
H 22.3512 21.3731 8.83908
H 21.1946 21.4662 9.81153
O 13.3081 28.2986 30.2415
H 12.7251 28.4291 30.9893
H 13.8668 29.0758 30.2343
O 31.842 10.3246 3.81734
H 31.5893 10.4254 2.8996
H 32.0446 11.2134 4.10943
O 3.18595 26.2577 3.77419
H 3.30744 25.4295 4.23842
H 3.85716 26.8364 4.136
O 14.4058 14.1329 2.19124
H 14.3469 14.6234 1.37134
H 13.759 14.5448 2.7642
O 24.6321 25.7574 21.7204
H 24.0469 26.4289 22.0707
H 25.4424 26.2259 21.52
O 26.9577 1.97988 14.8053
H 26.5015 1.13863 14.7837
H 27.0902 2.20476 13.8844
O 2.73824 26.9193 21.1457
H 2.21288 26.2993 21.6515
H 3.01256 26.4264 20.3724
O 11.799 25.571 7.01112
H 11.0394 25.8744 6.51392
H 12.5094 26.1541 6.74355
O 11.7689 8.39856 17.4195
H 11.5714 9.21352 17.8811
H 11.0466 7.81296 17.6467
O 3.63023 11.2014 21.0781
H 2.81118 11.6101 20.7982
H 3.48091 10.2627 20.965
O 24.2081 29.1148 1.89546
H 23.6902 29.8044 2.31081
H 24.0176 29.2013 0.96139
O 29.0448 26.4317 16.3857
H 29.0408 27.3473 16.665
H 28.5948 25.9642 17.0893
O 6.88243 25.7113 2.7894
H 7.28808 25.109 3.41303
H 6.22814 25.181 2.3345
O 20.2296 10.648 28.5519
H 20.7063 11.2873 29.0812
H 19.5722 11.1647 28.0859
O 23.6175 29.837 15.2718
H 24.2617 30.4964 15.0142
H 23.5857 29.2306 14.5319
O 28.7494 21.2574 12.2107
H 27.7977 21.2632 12.1086
H 29.0366 22.0875 11.8305
O 20.7809 31.9834 28.2579
H 21.6031 31.5543 28.4952
H 20.9896 32.9175 28.2559
O 27.6531 11.4102 30.5858
H 27.8139 11.8215 31.435
H 26.7446 11.1123 30.6317
O 28.4741 25.2281 24.4848
H 28.7811 26.0364 24.0742
H 28.4012 25.4439 25.4145
O 7.29742 20.8876 21.5746
H 7.73159 20.0763 21.8384