1572
Atoms. Timestep: 0
Ow 22.2663 4.40043 6.90303
H 21.3738 4.74487 6.87091
H 22.1601 3.48117 7.14782
Ow 11.2052 13.648 25.6668
H 10.9972 14.2996 24.9972
H 10.4041 13.5725 0.552795
Ow 9.78164 22.6344 21.7256
H 10.1396 23.1129 20.9779
H 8.9037 22.9968 21.8444
Ow 13.5504 13.8114 8.82285
H 12.955 14.444 8.4208
H 13.216 12.9581 8.54686
Ow 2.43152 0.668007 3.78276
H 1.83042 25.6198 4.0853
H 2.08516 1.47786 4.15747
Ow 18.2636 7.32569 16.3188
H 17.6139 7.18655 17.0079
H 19.0336 7.65983 16.7788
Ow 23.3319 13.3915 0.616478
H 22.8277 14.1573 0.341666
H 23.4352 12.8731 25.4509
Ow 0.723167 12.5031 17.5955
H 25.5764 12.9301 17.9514
H 1.4135 12.6962 18.2298
Ow 2.9788 9.42472 12.6137
H 2.98811 8.46987 12.6801
H 2.54128 9.71665 13.4134
Ow 16.4996 10.3406 10.1919
H 15.9446 10.7558 10.8521
H 17.3927 10.4829 10.5053
Ow 10.2592 18.0572 23.0915
H 10.0904 17.1819 22.7428
H 11.1447 18.0056 23.4513
Ow 19.518 20.542 20.0831
H 19.9598 20.001 19.4286
H 19.7301 20.1278 20.9196
Ow 25.4636 4.42378 13.9966
H 0.211954 5.11086 13.4496
H 24.6266 4.78538 14.2881
Ow 13.3962 16.2991 14.6841
H 13.9104 15.5895 15.0692
H 13.1685 16.8602 15.4254
Ow 4.6407 3.40175 11.348
H 4.37333 2.61612 10.8709
H 4.37857 4.12736 10.7814
Ow 10.1546 19.2328 4.87706
H 10.0564 18.7094 4.08169
H 9.33273 19.1058 5.35095
Ow 23.744 7.29674 13.9823
H 23.9266 8.11965 13.5288
H 23.7181 7.53417 14.9092
Ow 17.3402 16.6187 15.3117
H 17.3432 15.8657 15.9026
H 18.264 16.7714 15.1129
Ow 4.24107 10.8098 7.73766
H 3.30569 10.8904 7.55112
H 4.56151 11.7116 7.75211
Ow 17.4962 8.3677 13.8859
H 16.7567 8.90716 14.166
H 17.791 7.93108 14.6851
Ow 18.6049 21.7375 0.624132
H 18.5061 22.6483 0.346779
H 17.9471 21.6227 1.30988
Ow 14.3374 11.7423 1.02276
H 14.8794 11.3424 1.70288
H 14.9628 12.1714 0.438866
Ow 15.6432 13.5415 3.98764
H 15.5365 13.4637 4.93568
H 15.9417 12.6761 3.70788
Ow 17.1575 20.2975 13.53
H 16.759 20.562 12.7009
H 17.8966 20.8952 13.6425
Ow 20.7462 7.99087 23.356
H 21.3216 8.28051 22.6481
H 21.0501 7.10787 23.5663
Ow 11.1379 16.0494 13.3643
H 11.592 16.4065 12.6011
H 11.7784 16.1068 14.0733
Ow 25.1611 25.1343 24.0622
H 24.9891 25.3977 23.1582
H 24.3613 24.6865 24.338
Ow 7.23054 6.75863 4.32477
H 6.72187 7.32266 3.74223
H 8.13121 7.06967 4.2338
Ow 12.8193 8.19499 2.23629
H 12.2048 7.81079 1.61101
H 13.6472 8.24623 1.75856
Ow 13.979 4.44371 0.646529
H 14.7747 3.91681 0.721054
H 13.3133 3.94067 1.11549
Ow 2.5835 11.9377 19.5665
H 3.09468 12.6411 19.9667
H 3.23419 11.2843 19.3098
Ow 24.7706 10.7559 2.76506
H 24.2405 10.5989 1.98364
H 24.8745 9.89127 3.16229
Ow 20.9506 18.9064 17.8385
H 20.727 19.3778 17.036
H 20.2135 18.3126 17.9813
Ow 21.9539 7.9761 10.7574
H 22.3771 7.1254 10.6415
H 21.9305 8.35427 9.8784
Ow 16.1409 18.9267 20.054
H 15.8353 19.8278 19.95
H 16.8139 18.8224 19.3814
Ow 9.43069 6.9297 6.93212
H 10.0144 7.5691 7.34041
H 8.70577 7.45174 6.58831
Ow 9.01254 21.3259 3.29245
H 8.1716 21.4124 3.74139
H 9.48012 20.6524 3.7865
Ow 2.43326 6.9894 1.87904
H 2.47501 7.27165 0.965355
H 3.33575 6.76023 2.1009
Ow 22.8176 11.0618 20.8007
H 22.9068 11.3025 21.7229
H 22.214 11.7114 20.4404
Ow 19.9013 9.64732 13.4718
H 19.5903 10.5396 13.3189
H 19.1133 9.1064 13.4204
Ow 8.48078 25.675 2.12564
H 8.15455 0.91877 1.9207
H 8.242 25.5384 3.04246
Ow 13.6746 9.0992 24.8841
H 13.7868 8.16686 24.6986
H 14.2601 9.26915 25.6221
Ow 2.95176 9.49774 5.05183
H 3.58445 10.0295 4.56895
H 3.48284 8.83547 5.49407
Ow 22.7084 20.3499 11.7675
H 22.6055 21.3016 11.7658
H 22.9452 20.1325 10.8659
Ow 19.0625 10.9796 10.4002
H 18.6565 11.6338 9.8315
H 19.2782 11.4582 11.2006
Ow 18.2138 0.628973 21.8011
H 18.5534 0.883675 22.659
H 17.9791 25.3388 21.9001
Ow 21.3011 1.7055 7.58592
H 21.245 1.22451 6.76024
H 22.1916 1.54407 7.8977
Ow 18.435 9.44864 20.165
H 18.9232 9.95173 20.8168
H 18.2013 10.0892 19.4932
Ow 6.30946 15.8056 24.6433
H 6.74965 16.1483 25.4211
H 5.37759 15.8431 24.8588
Ow 18.6486 10.1187 3.09709
H 18.369 9.20643 3.02071
H 19.5748 10.0669 3.33333
Ow 24.2997 19.3056 6.02262
H 25.1527 19.0056 5.7086
H 23.7171 18.5586 5.8852
Ow 16.6933 0.366421 17.3651
H 16.4561 0.998395 18.0438
H 17.5914 0.59595 17.1267
Ow 22.5536 17.3387 12.4899
H 22.8249 18.2392 12.3114
H 21.8816 17.4202 13.1666
Ow 12.5637 10.0335 10.972
H 13.3249 10.4669 11.3579
H 12.4266 10.4855 10.1394
Ow 7.70341 25.0047 4.76879
H 7.89029 25.2453 5.67622
H 7.24764 24.1654 4.83205
Ow 23.7949 13.0374 10.9036
H 23.6356 12.1873 11.3136
H 24.5884 12.9084 10.3841
Ow 25.6336 3.807 25.4853
H 0.47118 4.56611 25.1403
H 0.381613 3.05931 25.0244
Ow 10.9528 14.9337 4.0099
H 10.8819 15.8078 3.6263
H 11.3186 15.0832 4.88173
Ow 18.4578 10.4835 5.8767
H 19.0681 9.87413 6.29202
H 18.303 10.1132 5.00772
Ow 19.9228 23.8054 5.8445
H 20.6637 23.2872 6.15864
H 19.272 23.1564 5.57735
Ow 24.4368 16.4606 24.7698
H 24.6078 16.4001 25.7097
H 23.5095 16.2406 24.68
Ow 3.29094 19.6847 2.49759
H 3.17243 19.7304 1.54885
H 2.94156 18.8277 2.74208
Ow 11.6111 9.85248 4.14395
H 11.4489 10.5875 3.55256
H 11.9053 9.14409 3.57133
Ow 22.3057 24.7364 24.9563
H 21.5657 24.3102 24.5239
H 22.0341 25.6492 25.0528
Ow 2.93064 0.169864 22.6353
H 3.76993 25.7693 23.0943
H 2.7952 24.9094 22.3183
Ow 23.7066 17.7822 18.3732
H 23.6907 17.4694 19.2776
H 22.9196 18.321 18.2917
Ow 9.62348 12.0704 10.7963
H 9.21942 11.2875 11.1707
H 9.79372 11.8393 9.88316
Ow 15.8529 10.8653 3.02347
H 15.4372 10.3624 3.7238
H 16.7826 10.6476 3.09087
Ow 12.4222 22.17 22.6764
H 11.4703 22.1727 22.5764
H 12.7152 21.4159 22.1648
Ow 15.314 20.1279 7.26213
H 15.6872 19.992 6.39121
H 14.4072 20.3864 7.09703
Ow 14.4299 15.9802 17.6867
H 13.8205 15.4817 18.231
H 15.1899 16.127 18.2498
Ow 11.8605 5.93153 19.4347
H 10.9669 6.02996 19.1062
H 12.4132 6.27855 18.7345
Ow 4.54013 0.526836 12.7978
H 5.42427 0.235061 12.5756
H 4.12146 0.689375 11.9525
Ow 19.6353 2.27037 4.05433
H 20.581 2.17117 4.16438
H 19.4784 3.20856 4.16114
Ow 5.44351 18.6031 15.12
H 5.59476 17.6899 15.364
H 4.49836 18.7229 15.2126
Ow 13.1322 19.6553 20.8336
H 13.8137 20.1253 20.3533
H 13.5439 18.8294 21.0879
Ow 5.36443 3.08888 25.2225
H 6.2754 3.22433 25.4833
H 5.15672 3.84548 24.6742
Ow 6.70941 24.8734 7.55489
H 7.48345 24.4193 7.8879
H 6.9468 0.167905 7.57738
Ow 13.8223 2.85333 22.1242
H 14.4641 2.35038 22.6255
H 13.9339 2.55331 21.2221
Ow 25.0398 24.726 9.70999
H 24.5152 25.5001 9.50541
H 24.9534 24.1667 8.938
Ow 5.56073 20.878 7.40731
H 5.37192 21.5927 8.01546
H 6.51512 20.8708 7.33434
Ow 25 19.899 17.1212
H 0.236734 19.738 16.7542
H 24.6257 19.0265 17.2436
Ow 18.7513 13.6617 20.1107
H 19.6889 13.4769 20.1657
H 18.4791 13.2756 19.2782
Ow 13.6192 25.4667 18.5987
H 12.737 25.2856 18.2742
H 13.7214 24.8861 19.3528
Ow 15.5484 21.8139 1.44205
H 15.1342 21.0331 1.07459
H 14.972 22.5341 1.18653
Ow 19.8867 16.2049 19.4989
H 19.6584 15.365 19.8972
H 20.1452 15.9839 18.6042
Ow 20.1593 8.02967 18.3457
H 19.7541 8.43839 19.1106
H 20.21 8.73171 17.697
Ow 5.00604 13.1476 5.89432
H 5.05178 13.5399 6.76621
H 5.78108 13.4792 5.44095
Ow 3.26434 21.9697 14.1746
H 2.80019 21.9807 13.3375
H 3.184 21.0666 14.4817
Ow 18.7603 17.992 0.629576
H 19.0397 18.249 1.50828
H 17.8169 18.154 0.62074
Ow 0.281764 14.0911 20.5564
H 0.488672 14.5229 21.3853
H 0.857388 14.5106 19.917
Ow 17.8334 12.679 8.57875
H 17.6423 13.3112 9.27158
H 17.7852 13.1879 7.76949
Ow 21.5554 10.7039 3.16873
H 21.8622 11.3449 3.8099
H 22.1977 9.99548 3.21133
Ow 21.0589 5.33545 24.0492
H 20.3168 5.09444 24.6038
H 21.8248 4.99694 24.5129
Ow 12.4207 22.5194 18.9462
H 13.2668 22.221 19.2798
H 12.5564 22.6205 18.004
Ow 21.7414 1.06419 18.4409
H 20.939 1.05703 17.919
H 21.4476 1.26262 19.33
Ow 15.2688 24.9026 23.5252
H 14.6725 24.9815 22.7805
H 15.9699 24.3313 23.2117
Ow 24.3596 14.3565 2.94344
H 23.659 14.1258 3.55343
H 24.0571 14.0302 2.09595
Ow 2.53382 7.64957 8.87087
H 2.91208 6.91392 9.35249
H 2.06124 8.1529 9.53386
Ow 9.99692 4.19271 8.24777
H 10.0168 3.70923 7.42189
H 9.63155 5.04683 8.0171
Ow 16.7969 2.00825 19.7026
H 16.698 2.92758 19.9501
H 17.1616 1.5879 20.4814
Ow 6.82429 6.45874 0.822939
H 6.83805 7.29151 0.351199
H 7.71837 6.3521 1.14773
Ow 6.52607 12.1433 25.5678
H 6.28858 12.3114 0.847251
H 6.7702 11.218 25.55
Ow 8.60047 21.4892 18.3651
H 9.40484 20.9757 18.2909
H 8.12836 21.3145 17.5509
Ow 24.5311 0.331514 21.3834
H 24.5305 1.14327 20.8762
H 24.5832 25.2702 20.726
Ow 15.9288 17.8039 1.10459
H 15.796 18.0264 2.02605
H 15.1943 18.2162 0.649862
Ow 22.7699 23.275 6.15845
H 22.6778 24.0392 5.58945
H 23.6885 23.2855 6.42751
Ow 25.1621 9.88917 17.7751
H 25.6765 10.6326 17.4607
H 25.7362 9.13256 17.6559
Ow 11.9668 4.99155 21.979
H 11.8791 5.31484 21.0824
H 12.7887 4.501 21.978
Ow 2.43798 25.1382 7.6084
H 2.92597 25.2863 6.79835
H 1.67847 24.6212 7.33992
Ow 5.60286 8.76825 16.7757
H 6.24187 8.56068 17.4575
H 4.75519 8.71539 17.2172
Ow 15.3712 7.3812 9.88538
H 15.9887 6.67487 9.69579
H 15.9147 8.16728 9.93896
Ow 7.327 17.3812 0.884847
H 6.86545 17.6701 1.67209
H 7.16247 18.0721 0.243078
Ow 20.7573 3.92761 17.0619
H 20.6599 3.01142 16.8024
H 20.1015 4.39468 16.5442
Ow 15.8549 1.94971 23.6596
H 15.7631 1.00518 23.7847
H 15.861 2.30982 24.5464
Ow 10.9063 0.256161 25.1202
H 10.9275 0.739371 24.2942
H 10.0236 25.5205 25.1603
Ow 23.1731 9.53437 0.752138
H 23.5804 8.67 0.808866
H 22.288 9.362 0.430987
Ow 2.45355 21.8939 8.45771
H 1.62691 21.8892 7.97513
H 2.44927 21.0723 8.94895
Ow 4.36091 24.9936 2.67194
H 3.64273 25.3739 3.17768
H 4.40791 24.0846 2.96813
Ow 7.55034 20.1766 21.9819
H 6.67001 20.5062 21.8012
H 7.61614 20.179 22.9368
Ow 11.2241 20.2552 18.4106
H 11.8371 19.5964 18.0843
H 11.7811 20.9728 18.7123
Ow 4.35112 8.25749 7.06723
H 4.4608 9.19162 7.245
H 3.67165 7.97488 7.67935
Ow 15.301 14.0473 11.4376
H 15.1049 13.1954 11.8274
H 14.7921 14.0632 10.6271
Ow 12.3235 17.1924 11.0148
H 11.5719 17.1579 10.4231
H 13.0731 17.3523 10.4415
Ow 1.50476 24.5681 12.9534
H 1.20875 25.4772 13.0001
H 0.709193 24.0501 13.0758
Ow 19.0614 6.44334 21.4184
H 18.4119 7.06929 21.0982
H 19.4848 6.8906 22.1512
Ow 21.6784 13.3798 19.8241
H 22.3535 13.1374 19.1904
H 22.0755 14.0802 20.3417
Ow 18.8995 11.7235 22.2578
H 18.2802 12.3178 21.8341
H 19.3866 12.2787 22.8667
Ow 19.9638 0.711613 10.5295
H 20.4329 0.303521 11.2572
H 19.1293 0.989093 10.9074
Ow 18.2036 4.23797 12.7045
H 17.4101 4.77158 12.6623
H 18.546 4.38627 13.5859
Ow 0.964282 1.71153 13.5744
H 0.402512 2.40613 13.9181
H 1.69411 1.66541 14.192
Ow 22.7086 11.4507 15.9106
H 22.6441 11.3734 14.9587
H 22.0469 10.8457 16.2459
Ow 19.4644 20.9345 4.57848
H 20.0875 20.7334 5.27666
H 18.6823 20.4299 4.80218
Ow 20.7346 13.3459 24.1856
H 21.393 12.6978 23.9353
H 21.2206 14.1676 24.2543
Ow 11.2641 10.7036 13.3128
H 11.4298 10.1201 14.0532
H 11.7012 10.2822 12.5727
Ow 24.6356 25.2831 2.58107
H 24.2984 24.5317 2.09327
H 25.2726 24.9082 3.1892
Ow 14.3813 9.73758 22.1281
H 14.2942 9.53829 23.0602
H 15.026 9.10709 21.8071
Ow 2.28372 21.4888 11.6635
H 1.57851 21.1867 12.2359
H 2.75165 20.6908 11.4175
Ow 10.7697 24.5959 19.8939
H 9.97173 24.3569 19.4224
H 11.395 23.9056 19.6728
Ow 18.351 25.0219 25.2994
H 18.6387 0.274345 25.075
H 18.7615 24.8435 0.513042
Ow 19.8438 18.6563 3.04301
H 20.7085 18.6174 3.45158
H 19.6337 19.5898 3.01425
Ow 4.04351 22.6305 4.19661
H 3.49709 21.8477 4.26678
H 3.77851 23.1754 4.93762
Ow 7.92287 13.7769 8.25692
H 8.62071 13.5509 7.64198
H 8.37601 14.185 8.9947
Ow 11.0521 22.8318 0.742176
H 11.8804 22.9205 0.270724
H 11.1498 23.3982 1.50763
Ow 14.4674 20.0895 15.693
H 14.0617 20.8979 16.0063
H 15.3531 20.1094 16.0555
Ow 8.72649 13.6636 3.13887
H 8.8985 13.929 2.23543
H 9.3468 14.1726 3.66077
Ow 7.02282 9.7755 21.3025
H 6.69981 10.6422 21.0559
H 6.46332 9.50949 22.0321
Ow 15.0169 12.6688 6.59567
H 14.1863 12.6886 6.12029
H 14.8437 13.155 7.4018
Ow 8.48611 14.2901 0.253275
H 8.46999 15.2148 25.639
H 7.56928 14.0695 0.417611
Ow 0.950204 1.70593 7.26821
H 25.7668 1.38516 7.65258
H 1.54449 0.956544 7.30656
Ow 25.4765 24.2694 19.262
H 25.2108 23.9443 18.4018
H 0.499669 24.9406 19.0728
Ow 12.8281 18.3717 16.7984
H 13.4788 18.998 16.4811
H 13.3272 17.7616 17.3415
Ow 16.1869 3.19182 16.4572
H 16.2399 3.88665 15.801
H 17.0958 2.92935 16.6029
Ow 23.3089 5.6572 10.6286
H 24.2089 5.35032 10.7382
H 22.8438 4.90838 10.2556
Ow 2.59167 17.1912 3.0284
H 2.17442 16.6119 2.39081
H 3.3218 16.6791 3.37614
Ow 12.8719 22.6257 3.30279
H 12.2768 22.0912 3.82845
H 13.746 22.3812 3.60669
Ow 8.32895 20.8599 7.35171
H 8.30146 19.9208 7.16816
H 9.17599 20.9968 7.77599
Ow 6.55815 3.64136 9.12355
H 6.13519 3.2649 9.89532
H 7.34289 4.07005 9.46508
Ow 2.26732 3.23455 5.22362
H 1.66105 2.82921 5.8436
H 3.12283 3.17113 5.64824
Ow 9.82652 7.47099 4.04423
H 10.0741 8.35219 4.32421
H 9.77398 7.52819 3.09019
Ow 19.7233 5.69538 7.254
H 19.6813 6.6325 7.06357
H 19.4655 5.27228 6.435
Ow 13.9217 17.8203 8.96257
H 13.2478 17.5453 8.34096
H 14.7452 17.7144 8.48616
Ow 22.2542 0.769389 2.69247
H 22.0597 0.981947 1.77966
H 23.1166 0.354929 2.66386
Ow 2.22116 10.3894 24.7375
H 2.87961 10.9853 24.3803
H 2.62423 9.52321 24.6788
Ow 10.6191 20.2705 9.45023
H 10.0489 20.7863 10.0203
H 10.2258 19.3978 9.44365
Ow 20.6679 19.0222 22.1545
H 21.279 18.3736 21.8052
H 20.5286 18.7557 23.0632
Ow 22.9692 23.3375 11.28
H 23.3444 23.28 12.1588
H 23.6538 23.7499 10.7533
Ow 13.9741 19.6679 0.59
H 13.2689 19.5265 1.22153
H 13.5706 19.5011 25.3707
Ow 20.94 0.553173 21.0169
H 19.9933 0.621671 21.1404
H 21.3141 1.00131 21.7755
Ow 7.21095 18.5693 10.0304
H 6.63553 18.1182 9.41264
H 8.05484 18.1268 9.9393
Ow 9.88644 20.4986 0.887578
H 10.3878 21.3052 0.76816
H 9.37783 20.6479 1.68461
Ow 1.24975 7.68007 17.5402
H 1.57207 7.22329 16.7632
H 2.02912 8.08429 17.9215
Ow 2.51926 13.6235 4.30431
H 2.63129 14.4015 3.75808
H 3.25737 13.6494 4.9132
Ow 13.5117 6.27 23.9912
H 13.501 5.60646 24.681
H 12.8738 5.95877 23.349
Ow 23.7409 3.89808 4.84545
H 23.0267 3.97249 5.47843
H 23.7854 4.75995 4.4314
Ow 1.34331 1.0719 18.8891
H 2.05066 1.47451 19.3929
H 1.22406 1.65192 18.1371
Ow 3.71535 11.4586 3.16043
H 4.64463 11.6865 3.13287
H 3.2755 12.2736 3.40234
Ow 17.2349 1.02228 2.96948
H 16.9805 0.534008 3.75248
H 18.0247 1.49686 3.22869
Ow 5.38193 8.80475 14.0726
H 5.28401 8.92034 15.0178
H 4.83581 9.49095 13.6891
Ow 18.5994 2.45954 9.08133
H 18.6524 2.31236 8.137
H 19.3533 1.99121 9.43986
Ow 10.0555 12.8998 6.70805
H 10.6778 12.4271 7.26081
H 9.76406 12.2519 6.06659
Ow 23.2708 18.8542 2.31148
H 22.6598 19.2372 1.68198
H 23.5825 19.5984 2.82661
Ow 12.7198 21.5118 8.18677
H 12.2573 21.4056 9.01802
H 12.0902 21.2286 7.52383
Ow 7.3254 20.6741 16.0623
H 8.01146 20.4701 15.4267
H 6.64952 20.0146 15.9058
Ow 21.399 22.5914 3.55289
H 22.1106 22.2965 4.12115
H 20.6089 22.22 3.94531
Ow 15.9444 6.81835 18.1564
H 15.1187 6.86167 17.6741
H 16.0144 5.90399 18.4308
Ow 15.2106 2.8831 11.6199
H 14.976 3.0881 10.7148
H 16.0011 2.3482 11.5477
Ow 11.2448 0.874061 13.8444
H 10.8666 25.6513 13.6399
H 10.7346 1.49314 13.3222
Ow 6.43726 11.2793 17.4178
H 6.21306 10.4106 17.0841
H 7.37868 11.2364 17.5855
Ow 13.2979 17.8151 5.24402
H 12.4847 18.3127 5.15867
H 13.042 17.0135 5.70023
Ow 4.01762 3.92801 17.2619
H 4.66655 4.19909 17.9112
H 3.76869 4.73891 16.8183
Ow 5.77462 21.6812 0.344096
H 4.95668 22.1715 0.426895
H 6.44548 22.275 0.681168
Ow 17.1773 7.23136 24.6586
H 17.578 8.02696 24.3083
H 16.8397 6.77362 23.8887
Ow 22.4221 17.0002 6.25494
H 21.4775 17.094 6.13221
H 22.5155 16.6518 7.14156
Ow 23.7192 8.6895 4.4236
H 24.6482 8.4715 4.34832
H 23.6434 9.12752 5.27131
Ow 24.0132 0.461087 16.0453
H 24.3381 25.1932 16.0506
H 23.5277 0.545857 16.8659
Ow 17.2296 21.5537 8.69494
H 16.5791 21.1874 8.09588
H 17.144 22.5015 8.59188
Ow 10.8915 5.06979 10.9404
H 10.0196 5.46365 10.9095
H 10.7891 4.22541 10.5013
Ow 24.4348 5.94132 7.07862
H 23.5584 5.55688 7.06112
H 24.3619 6.67733 7.68625
Ow 9.60515 2.55373 6.22471
H 9.48708 2.98428 5.378
H 8.72762 2.25941 6.46871
Ow 14.0124 16.1504 2.94333
H 14.8814 15.8113 3.15779
H 13.7465 16.639 3.72231
Ow 0.90963 8.36068 3.59799
H 1.43914 7.76277 3.07038
H 1.48914 8.62885 4.31107
Ow 13.8387 22.398 11.7563
H 13.0691 22.0306 12.191
H 14.4827 22.503 12.4567
Ow 17.1582 18.7528 10.5328
H 17.706 18.2415 11.1284
H 17.7384 19.4387 10.2023
Ow 8.3582 10.6345 7.70586
H 7.91231 11.4728 7.82749
H 8.14679 10.1337 8.49371
Ow 18.4753 3.83175 18.5535
H 18.245 2.91722 18.7173
H 19.3717 3.79741 18.2196
Ow 25.439 20.0129 20.0462
H 25.6087 19.0763 20.1468
H 25.427 20.1543 19.0996
Ow 5.81833 17.5252 7.83661
H 5.01189 17.8591 7.44369
H 6.48462 17.6515 7.16108
Ow 19.7558 17.3921 5.91312
H 19.1838 16.6795 6.1983
H 19.403 17.6578 5.06391
Ow 5.9964 7.40223 9.24453
H 5.66261 7.69953 8.3981
H 6.50632 8.14198 9.57467
Ow 5.88411 19.8023 2.21497
H 6.04357 20.4087 1.49177
H 4.9314 19.7815 2.30517
Ow 22.0303 14.4485 4.51141
H 22.1668 13.7256 5.12377
H 21.9104 15.2167 5.06983
Ow 22.1323 22.5086 18.0862
H 22.6089 22.7906 17.3054
H 21.3349 23.038 18.0848
Ow 2.77263 20.0026 25.321
H 1.96363 20.5141 25.3288
H 2.70887 19.4647 24.5317
Ow 4.11928 16.2489 11.1676
H 3.6923 15.6726 11.8014
H 5.04562 16.0123 11.2141
Ow 13.9774 2.38488 19.3878
H 13.8292 1.45306 19.2266
H 14.9216 2.45714 19.5275
Ow 17.9736 14.1462 11.1484
H 18.3428 13.6913 11.9054
H 17.0264 14.0969 11.2773
Ow 18.5284 13.9048 3.84281
H 19.1734 13.7042 4.52104
H 17.6851 13.8631 4.29371
Ow 15.3364 5.36532 15.0468
H 15.3457 6.12051 15.6349
H 15.1723 5.7378 14.1804
Ow 13.3569 3.13208 5.76372
H 14.0042 3.22548 5.06482
H 13.8545 3.26295 6.57084
Ow 1.59899 22.0187 19.2486
H 0.969853 22.6664 19.5661
H 1.34144 21.2031 19.6785
Ow 3.63558 15.3693 24.4523
H 3.33195 15.6935 23.6043
H 2.86231 15.4085 25.0151
Ow 10.1262 12.7442 20.2211
H 10.9558 13.182 20.0307
H 9.46564 13.2805 19.7826
Ow 15.9727 1.10777 9.16504
H 16.8738 1.42942 9.19167
H 15.4786 1.81248 8.7461
Ow 13.6207 23.4299 25.2394
H 14.3426 23.9087 24.8321
H 13.3154 22.8308 24.5582
Ow 16.9385 5.05919 8.7194
H 17.5985 4.4991 8.31071
H 16.1351 4.53945 8.69635
Ow 10.3492 17.5454 15.8658
H 10.579 16.685 16.2167
H 11.1322 18.0782 16.0048
Ow 17.1734 14.0925 16.5593
H 17.6372 13.2573 16.6203
H 16.409 13.9033 16.0151
Ow 8.17886 18.3453 6.33585
H 8.4651 17.4946 6.66827
H 7.63865 18.1359 5.57392
Ow 14.4758 0.37882 3.36039
H 14.6633 1.31209 3.46077
H 15.071 25.5796 3.97328
Ow 8.93123 13.2962 16.6514
H 8.6567 13.5961 17.518
H 8.47644 13.8769 16.0413
Ow 23.0531 4.50827 0.285449
H 22.5601 3.69949 0.423541
H 23.9004 4.21815 25.5801
Ow 21.1823 13.7732 14.9737
H 20.4717 13.4159 14.441
H 21.6087 13.0042 15.3518
Ow 11.4017 0.41485 16.7202
H 11.7644 0.408305 15.8344
H 10.4561 0.489692 16.5918
Ow 11.7792 13.5893 10.9526
H 11.1712 12.9016 10.6814
H 12.3084 13.7626 10.174
Ow 19.0643 24.6884 15.0739
H 19.7334 24.8078 14.3999
H 19.2478 25.3723 15.718
Ow 7.09593 1.81402 7.07795
H 6.77639 2.23966 7.87353
H 6.56398 2.18795 6.3755
Ow 9.7809 13.5543 13.585
H 10.078 14.4642 13.5824
H 10.0481 13.2122 12.7319
Ow 23.9738 20.9387 3.91822
H 24.0755 20.5139 4.76991
H 24.8124 21.3743 3.76563
Ow 4.79982 5.87713 14.4381
H 4.20997 5.95832 13.6887
H 5.27808 6.70605 14.458
Ow 17.3215 19.1928 5.60786
H 17.4084 18.482 6.243
H 16.6157 18.9101 5.0263
Ow 7.1849 22.3017 4.88947
H 7.34811 22.0227 5.79045
H 6.3382 21.9141 4.66787
Ow 3.99291 5.46177 9.83672
H 3.69685 5.78236 10.6887
H 4.79269 5.95666 9.65879
Ow 9.16923 10.3918 5.20722
H 8.96754 10.0852 6.09126
H 10.0845 10.1468 5.07118
Ow 17.3071 23.6148 22.3353
H 17.3787 23.4052 21.4041
H 17.8564 22.9631 22.7709
Ow 22.6985 11.0601 13.0904
H 23.1727 10.2347 13.1905
H 21.7762 10.8055 13.0651
Ow 24.3701 8.05502 8.76076
H 24.8609 8.24846 9.55943
H 24.4965 8.82656 8.20853
Ow 16.6395 3.30904 0.646577
H 17.5044 3.68891 0.492518
H 16.7582 2.74333 1.40953
Ow 16.2461 15.8241 22.4719
H 15.623 16.5288 22.6491
H 15.8082 15.2743 21.8222
Ow 10.082 7.49097 13.4125
H 9.64804 6.68216 13.684
H 9.36966 8.12123 13.3053
Ow 23.6414 13.2655 18.0342
H 23.4621 14.1309 17.6666
H 23.644 12.6792 17.2776
Ow 7.83952 13.8182 19.0537
H 7.42523 14.5715 19.4745
H 7.11439 13.2264 18.8534
Ow 24.212 6.94378 0.758524
H 24.7168 6.93619 25.5778
H 23.5097 6.31039 0.610956
Ow 8.72971 23.9776 25.4578
H 9.45666 23.4024 25.6965
H 8.39669 24.3031 0.661618
Ow 16.4103 17.3499 8.06307
H 16.9747 17.7649 8.71528
H 16.8151 16.4974 7.90306
Ow 20.0317 20.5537 10.4501
H 19.9314 20.0189 9.66258
H 20.9041 20.3362 10.7784
Ow 21.9652 1.12526 14.2285
H 21.1854 1.12121 14.7836
H 22.6927 0.98963 14.8357
Ow 15.6925 18.533 22.9708
H 15.5337 18.7508 22.0524
H 14.8204 18.4998 23.3639
Ow 22.9314 4.80716 15.5005
H 22.102 4.50041 15.8668
H 22.7021 5.60277 15.0203
Ow 1.4966 18.2601 13.5294
H 0.775031 18.8756 13.4003
H 1.85506 18.487 14.3875
Ow 9.80705 12.2069 22.9118
H 9.67765 11.26 22.966
H 10.1672 12.3501 22.0365
Ow 3.5276 16.3257 21.8362
H 4.33437 16.8362 21.9052
H 2.82705 16.976 21.8873
Ow 14.4922 8.96317 14.2489
H 13.8643 9.4789 14.7549
H 14.6768 9.49924 13.4776
Ow 0.259526 2.40252 16.5974
H 25.4372 3.17776 16.9266
H 25.1924 1.82714 16.288
Ow 3.22455 1.97568 20.6523
H 4.0811 1.76042 20.2833
H 3.12943 1.38423 21.3989
Ow 12.6365 24.1541 7.9793
H 12.8139 23.2202 8.09154
H 11.6834 24.2253 8.03108
Ow 15.0414 11.2358 19.0385
H 15.9403 11.2686 18.7112
H 15.0263 11.8625 19.7618
Ow 9.24302 19.9204 14.2081
H 9.89591 19.228 14.3103
H 9.7329 20.6614 13.8514
Ow 22.3217 3.99985 19.3831
H 22.9889 3.31989 19.4765
H 21.7554 3.68517 18.6784
Ow 5.33329 8.45117 2.94696
H 5.59088 9.28861 3.33242
H 5.86716 8.37673 2.15597
Ow 9.25905 5.19077 15.0677
H 8.9739 4.6276 15.7873
H 10.0461 4.76541 14.7275
Ow 15.1304 2.94316 3.76229
H 16.0079 2.56385 3.71453
H 15.2744 3.88816 3.71262
Ow 23.6393 15.8966 16.5688
H 24.5003 15.6414 16.2374
H 23.8235 16.5771 17.2164
Ow 16.8278 11.5541 13.9568
H 17.7178 11.8168 13.722
H 16.3677 11.4901 13.1198
Ow 17.9681 20.954 23.3515
H 17.1034 20.5499 23.424
H 18.4069 20.7307 24.1724
Ow 17.4822 1.4123 11.9876
H 17.6948 2.26758 12.3612
H 17.1676 0.897362 12.7307
Ow 1.34045 12.6812 12.6229
H 1.49706 13.6213 12.5338
H 1.69029 12.3021 11.8165
Ow 1.68139 18.5456 23.2689
H 0.918508 19.0481 23.5549
H 2.04879 19.0566 22.5477
Ow 18.9188 4.87415 15.207
H 19.5469 5.33074 14.6473
H 18.3792 5.57102 15.5803
Ow 21.2364 23.5389 21.2021
H 20.6777 23.2265 20.4904
H 21.2679 24.4882 21.0834
Ow 14.0391 1.02226 13.0588
H 13.1023 1.21874 13.0703
H 14.4398 1.78757 12.6466
Ow 9.55154 9.46221 22.6158
H 9.3274 8.67318 23.1091
H 8.79989 9.6076 22.0412
Ow 16.601 25.3309 14.1668
H 17.4978 25.1902 14.4706
H 16.2595 24.4504 14.0109
Ow 0.883655 21.4985 2.75772
H 0.430912 21.4206 1.91796
H 1.47022 20.7425 2.78512
Ow 21.1021 24.8007 12.6611
H 21.632 25.4763 13.0843
H 21.7099 24.3524 12.0731
Ow 25.6024 20.5307 12.8482
H 25.1125 20.3765 12.0404
H 25.2256 21.3338 13.2077
Ow 17.9483 11.0672 0.242089
H 18.0128 10.4992 25.1068
H 18.2565 10.5251 0.968293
Ow 5.34011 8.75332 23.1558
H 4.92791 7.92064 23.386
H 5.73371 9.06012 23.9726
Ow 11.5421 21.4678 5.69535
H 11.0873 20.6725 5.4182
H 10.9371 22.1776 5.48031
Ow 9.65069 15.7239 21.9064
H 9.74579 16.1249 21.0425
H 10.5014 15.3204 22.0787
Ow 16.9744 24.1533 8.08566
H 16.7943 24.0729 7.149
H 16.485 24.9294 8.35836
Ow 21.8896 3.78896 12.7167
H 21.719 3.10217 13.3612
H 22.3193 4.48426 13.2149
Ow 9.77568 17.3103 2.80765
H 10.3652 17.2378 2.057
H 8.916 17.0704 2.46177
Ow 2.36945 16.1135 6.6157
H 3.15221 16.0066 6.07526
H 1.98368 16.9377 6.31888
Ow 20.8847 15.8881 16.9745
H 20.6626 15.2188 16.3273
H 21.8113 16.0726 16.8206
Ow 2.40777 15.4445 19.066
H 2.72684 16.2348 18.6303
H 3.19268 15.0416 19.4373
Ow 3.75408 3.17637 7.97223
H 4.08716 3.95564 8.41723
H 4.47482 2.89546 7.40845
Ow 8.19893 3.32702 16.7565
H 8.34407 2.38092 16.7485
H 8.23972 3.56826 17.6819
Ow 7.43353 3.12231 21.8398
H 7.73991 3.4114 20.9803
H 6.574 3.53183 21.9384
Ow 1.10636 18.5226 5.22029
H 1.81244 19.0575 5.58295
H 1.51951 18.0274 4.513
Ow 15.2478 18.938 3.81881
H 15.3349 19.8886 3.88832
H 14.6834 18.6944 4.55257
Ow 12.8242 7.29858 12.6328
H 13.3986 7.81682 13.1964
H 11.9404 7.50123 12.9395
Ow 5.31858 13.5625 8.65929
H 6.25926 13.5059 8.82711
H 4.93693 13.7912 9.50679
Ow 19.1346 7.71709 10.2818
H 18.9586 8.26236 9.51507
H 19.5362 8.31371 10.9135
Ow 19.0026 1.88959 24.2952
H 18.6745 2.74264 24.0108
H 19.8236 2.08645 24.7462
Ow 4.62706 25.0434 5.92153
H 5.37444 24.947 6.51176
H 5.00647 25.3681 5.10493
Ow 7.21508 5.50578 23.8235
H 6.4221 5.92597 23.4906
H 7.16301 5.61335 24.7732
Ow 15.9607 5.95176 12.2592
H 15.2327 6.20256 11.6905
H 16.4011 6.77678 12.4632
Ow 13.2078 6.29255 7.58917
H 14.0593 6.70698 7.45022
H 13.4169 5.39395 7.84413
Ow 24.8374 23.5934 16.4895
H 24.5654 23.3293 15.6106
H 25.7869 23.696 16.4262
Ow 20.041 12.8456 6.27788
H 19.6798 13.7305 6.33108
H 19.2742 12.2728 6.2818
Ow 7.53017 5.06946 12.7348
H 6.88014 4.39369 12.9272
H 7.8911 5.30554 13.5893
Ow 23.5192 8.14604 16.6346
H 23.4359 7.73373 17.4944
H 23.9597 8.97779 16.809
Ow 5.66031 5.1647 19.0434
H 5.32792 4.89696 19.9002
H 6.58615 4.92218 19.0587
Ow 8.46107 5.93051 10.3025
H 8.1134 6.74887 9.94805
H 7.87553 5.71553 11.0286
Ow 11.9971 2.66022 1.84479
H 11.4052 3.301 1.45083
H 11.6357 2.50424 2.71729
Ow 2.13134 18.8991 9.19131
H 1.21632 18.6948 9.38425
H 2.57619 18.8288 10.0359
Ow 6.52601 10.9185 4.30313
H 7.46083 10.758 4.43196
H 6.23176 11.2999 5.13029
Ow 4.25157 14.1976 20.4098
H 5.06354 14.6602 20.2025
H 3.74067 14.8263 20.9196
Ow 1.75498 4.12082 18.8998
H 0.982521 3.98689 18.3507
H 2.49546 3.94259 18.3201
Ow 1.02358 12.8238 1.13689
H 0.764818 12.5086 0.270925
H 0.203098 12.8808 1.62657
Ow 24.5789 9.33069 11.9547
H 25.2954 9.33978 11.3201
H 23.811 9.07039 11.446
Ow 6.55441 18.0628 4.14387
H 6.09493 18.6032 3.50111
H 6.06778 17.2386 4.15628
Ow 1.96997 3.02909 1.8309
H 2.59221 2.68607 2.4723
H 2.41252 2.92623 0.988407
Ow 2.29881 15.2396 9.29705
H 2.58708 15.4495 8.40876
H 3.0623 15.419 9.84582
Ow 18.8731 4.69324 4.74682
H 19.3068 5.25536 4.10481
H 17.9564 4.9677 4.72566
Ow 24.9605 16.7221 1.87068
H 24.9017 16.0402 2.53993
H 24.3552 17.4018 2.16686
Ow 6.77103 1.10546 11.0593
H 7.61973 0.735784 10.8158
H 6.13504 0.44052 10.7954
Ow 21.0594 6.39763 13.8584
H 21.5337 6.83476 13.1511
H 20.9572 7.07107 14.5309
Ow 5.40811 13.0128 15.0961
H 5.80678 13.883 15.0981
H 5.58614 12.6653 15.97
Ow 2.08292 5.66777 15.6974
H 1.40779 5.29781 15.1285
H 2.69693 6.09093 15.0973
Ow 9.09493 4.02164 4.09539
H 8.67951 3.78551 3.26599
H 9.01729 4.97465 4.13993
Ow 6.35306 21.6605 10.2003
H 7.28386 21.6967 10.4206
H 6.17348 20.7294 10.0695
Ow 8.10197 9.22338 12.9814
H 7.28273 8.83412 13.2873
H 8.02817 9.21889 12.0271
Ow 23.2018 14.7173 21.6078
H 23.1134 14.1066 22.3396
H 24.1007 14.5965 21.3017
Ow 5.9622 24.3491 20.278
H 5.31141 23.6486 20.2331
H 6.23756 24.3625 21.1946
Ow 20.2687 17.3021 14.5862
H 20.0829 18.2108 14.823
H 20.6468 16.9202 15.3783
Ow 25.0044 19.3985 24.0853
H 24.7909 18.5313 24.4298
H 25.4129 19.855 24.8208
Ow 0.352068 4.9303 11.0309
H 0.535201 3.99237 11.0855
H 1.11816 5.34771 11.4248
Ow 18.8316 22.2922 16.2675
H 19.1423 22.5291 17.1413
H 18.8926 23.1033 15.763
Ow 5.65382 21.3195 12.9203
H 5.42374 21.6123 12.0385
H 4.91829 21.5989 13.4654
Ow 13.0796 19.6171 12.666
H 12.457 20.1471 13.1636
H 12.5401 18.9531 12.2367
Ow 15.4304 21.8823 4.07359
H 16.0185 22.5642 4.39815
H 15.622 21.8257 3.13748
Ow 15.0584 16.891 11.3341
H 15.0507 16.8957 10.3769
H 14.7937 16.0023 11.5718
Ow 24.7705 5.80155 21.2293
H 24.3212 6.55784 20.8519
H 24.9663 6.06308 22.129
Ow 24.8757 2.99003 20.117
H 25.7954 2.91852 19.8617
H 24.803 3.85911 20.5115
Ow 5.28627 3.2087 14.0795
H 5.18046 3.21548 13.1282
H 5.19347 4.1257 14.3379
Ow 9.01027 14.8615 10.6256
H 8.05783 14.8538 10.7207
H 9.28547 13.9853 10.8954
Ow 20.916 23.0666 8.90869
H 20.9585 22.1264 9.08352
H 21.4603 23.4621 9.5895
Ow 6.9974 8.06221 19.0439
H 6.72854 8.46925 19.8674
H 6.62324 7.18182 19.0779
Ow 13.8106 16.8646 20.8723
H 14.5957 16.4822 20.4803
H 13.095 16.305 20.5707
Ow 17.8044 7.62987 2.79905
H 18.5807 7.09683 2.62746
H 17.1364 7.00049 3.07097
Ow 9.45425 6.83168 23.9904
H 8.60024 6.41572 23.8726
H 9.69108 6.64059 24.8979
Ow 10.1369 4.00797 0.427125
H 10.1552 4.89501 0.786379
H 9.44634 3.56393 0.919222
Ow 14.9491 13.5739 15.1407
H 15.6662 13.059 14.7705
H 14.582 13.0157 15.8262
Ow 2.70985 22.8875 22.4005
H 3.58408 22.6545 22.7131
H 2.46295 22.1677 21.8198
Ow 11.4033 21.6174 13.6063
H 11.8691 21.9236 14.3845
H 11.125 22.4186 13.1625
Ow 16.3017 4.59873 20.3612
H 17.0154 5.0316 19.8926
H 16.3288 4.9755 21.2407
Ow 21.7368 15.904 25.2468
H 21.0972 16.3234 24.6713
H 21.2943 15.8433 0.460965
Ow 25.6302 14.621 6.69911
H 0.81273 15.1189 6.76393
H 25.346 14.5068 7.60597
Ow 16.1276 5.8324 22.6478
H 16.0494 6.51291 21.9792
H 15.2408 5.73298 22.9939
Ow 8.27588 16.6659 13.0873
H 7.96437 16.3106 13.9198
H 9.2249 16.5441 13.1145
Ow 1.16184 9.24102 10.2846
H 1.40933 9.35872 11.2017
H 1.54467 9.99388 9.83416
Ow 6.0278 21.4547 19.7237
H 5.37822 21.6486 19.0479
H 6.87018 21.5293 19.2753
Ow 25.25 18.8591 10.2551
H 25.2414 17.902 10.2468
H 24.6739 19.1106 9.53318
Ow 25.3485 16.0843 10.2181
H 24.6977 15.8838 9.54538
H 0.549292 15.8101 9.83503
Ow 22.2031 17.1555 20.8168
H 22.4987 16.3447 21.2309
H 21.591 16.8693 20.1388
Ow 15.0137 13.6594 21.0542
H 14.3472 14.159 20.5827
H 14.5311 13.2109 21.7486
Ow 20.3327 23.1398 23.8394
H 20.5917 23.205 22.9202
H 19.7786 23.9061 23.9875
Ow 6.461 14.8918 11.5382
H 6.18304 14.0086 11.7812
H 6.96452 15.2007 12.2914
Ow 8.30593 0.582255 16.8469
H 8.29285 25.4504 17.4229
H 8.12699 0.229104 15.9754
Ow 17.0756 15.6126 25.1284
H 16.5779 15.762 24.3245
H 16.7281 16.2538 25.7484
Ow 13.2965 6.67071 17.1738
H 12.7756 7.38251 16.802
H 13.0945 5.91327 16.6245
Ow 9.79886 7.85729 18.997
H 8.8478 7.91487 19.0887
H 9.93695 7.59957 18.0856
Ow 1.4203 23.3659 24.7637
H 1.75809 23.2398 23.877
H 0.713049 24.0029 24.6628
Ow 7.9601 17.3082 17.4544
H 7.77631 16.5291 16.9295
H 8.53771 17.8374 16.9043
Ow 3.50787 11.1469 10.5986
H 4.20437 11.1521 9.94205
H 3.74734 10.439 11.1968
Ow 20.9524 19.7926 25.6015
H 20.4287 20.5799 25.7502
H 20.3651 19.0689 0.187009
Ow 19.9504 8.48345 6.86721
H 20.5438 8.96812 7.44099
H 20.4584 8.33079 6.07043
Ow 2.65862 7.74192 24.8911
H 1.7866 7.41078 24.6763
H 3.25898 7.09466 24.5212
Ow 2.08375 15.3907 13.2748
H 2.33185 14.9122 14.0658
H 1.66948 16.1907 13.5983
Ow 15.4857 8.34838 1.0679
H 16.04 8.62558 1.79741
H 16.0881 7.92493 0.45627
Ow 3.03154 9.11929 21.5663
H 3.0995 9.16771 20.6128
H 3.92436 8.94095 21.8618