created by fftool

3144 atoms
2000 bonds
1000 angles
4 atom types
1 bond types
1 angle types
0.000000 32.566733 xlo xhi
0.000000 32.566733 ylo yhi
0.000000 32.566733 zlo zhi
Atoms

      1       1    1  -1.112800  3.087098e+01  1.067244e+01  1.578149e+01  # Ow water
      2       1    2   0.556400  3.099228e+01  1.143570e+01  1.634624e+01  # Hw water
      3       1    2   0.556400  2.993507e+01  1.066872e+01  1.558078e+01  # Hw water
      4       2    1  -1.112800  7.473215e+00  1.520675e+00  2.820476e+00  # Ow water
      5       2    2   0.556400  8.067346e+00  1.509486e+00  3.570884e+00  # Hw water
      6       2    2   0.556400  6.597737e+00  1.512175e+00  3.207380e+00  # Hw water
      7       3    1  -1.112800  1.706338e+01  2.636963e+01  2.856370e+01  # Ow water
      8       3    2   0.556400  1.735132e+01  2.697332e+01  2.924845e+01  # Hw water
      9       3    2   0.556400  1.664635e+01  2.565024e+01  2.903783e+01  # Hw water
     10       4    1  -1.112800  2.754936e+01  1.291197e+01  1.500000e+00  # Ow water
     11       4    2   0.556400  2.821089e+01  1.360377e+01  1.500986e+00  # Hw water
     12       4    2   0.556400  2.671541e+01  1.337728e+01  1.565078e+00  # Hw water
     13       5    1  -1.112800  1.436292e+01  2.432832e+01  2.223002e+00  # Ow water
     14       5    2   0.556400  1.490195e+01  2.400746e+01  1.500005e+00  # Hw water
     15       5    2   0.556400  1.406927e+01  2.353633e+01  2.673279e+00  # Hw water
     16       6    1  -1.112800  3.770957e+00  1.015733e+01  5.319829e+00  # Ow water
     17       6    2   0.556400  4.710946e+00  1.018914e+01  5.141959e+00  # Hw water
     18       6    2   0.556400  3.707361e+00  1.015548e+01  6.274911e+00  # Hw water
     19       7    1  -1.112800  2.021251e+00  1.501579e+00  2.239197e+01  # Ow water
     20       7    2   0.556400  1.500541e+00  2.266025e+00  2.263837e+01  # Hw water
     21       7    2   0.556400  2.161577e+00  1.600194e+00  2.145027e+01  # Hw water
     22       8    1  -1.112800  1.092562e+01  1.176747e+01  3.622901e+00  # Ow water
     23       8    2   0.556400  1.075539e+01  1.137229e+01  4.477931e+00  # Hw water
     24       8    2   0.556400  1.137492e+01  1.258859e+01  3.823202e+00  # Hw water
     25       9    1  -1.112800  2.014333e+01  2.418625e+01  9.816746e+00  # Ow water
     26       9    2   0.556400  2.090001e+01  2.433548e+01  9.249828e+00  # Hw water
     27       9    2   0.556400  1.948308e+01  2.480441e+01  9.503409e+00  # Hw water
     28      10    1  -1.112800  2.294941e+01  1.039055e+01  2.904174e+01  # Ow water
     29      10    2   0.556400  2.368983e+01  9.875954e+00  2.872049e+01  # Hw water
     30      10    2   0.556400  2.228469e+01  1.030736e+01  2.835803e+01  # Hw water
     31      11    1  -1.112800  1.616920e+00  4.980168e+00  2.245933e+01  # Ow water
     32      11    2   0.556400  1.500344e+00  4.547207e+00  2.161365e+01  # Hw water
     33      11    2   0.556400  1.500006e+00  5.911227e+00  2.227041e+01  # Hw water
     34      12    1  -1.112800  1.178985e+01  3.106668e+01  2.630993e+01  # Ow water
     35      12    2   0.556400  1.234824e+01  3.098954e+01  2.708354e+01  # Hw water
     36      12    2   0.556400  1.170758e+01  3.017081e+01  2.598303e+01  # Hw water
     37      13    1  -1.112800  1.351833e+01  3.106669e+01  8.677125e+00  # Ow water
     38      13    2   0.556400  1.315364e+01  3.085458e+01  7.817915e+00  # Hw water
     39      13    2   0.556400  1.278871e+01  3.094403e+01  9.284448e+00  # Hw water
     40      14    1  -1.112800  1.818650e+01  1.264195e+01  8.535976e+00  # Ow water
     41      14    2   0.556400  1.788263e+01  1.256619e+01  7.631461e+00  # Hw water
     42      14    2   0.556400  1.740709e+01  1.247456e+01  9.065813e+00  # Hw water
     43      15    1  -1.112800  6.648995e+00  7.376911e+00  2.691929e+01  # Ow water
     44      15    2   0.556400  6.993139e+00  8.206021e+00  2.658707e+01  # Hw water
     45      15    2   0.556400  6.702400e+00  6.778946e+00  2.617376e+01  # Hw water
     46      16    1  -1.112800  1.203041e+01  2.948611e+00  1.824697e+01  # Ow water
     47      16    2   0.556400  1.234945e+01  3.849736e+00  1.829610e+01  # Hw water
     48      16    2   0.556400  1.122516e+01  2.950578e+00  1.876448e+01  # Hw water
     49      17    1  -1.112800  4.253752e+00  6.782035e+00  6.223190e+00  # Ow water
     50      17    2   0.556400  4.463856e+00  6.152024e+00  6.912516e+00  # Hw water
     51      17    2   0.556400  3.656400e+00  7.403226e+00  6.639750e+00  # Hw water
     52      18    1  -1.112800  1.891682e+01  1.507081e+00  3.738212e+00  # Ow water
     53      18    2   0.556400  1.939704e+01  1.500000e+00  2.910222e+00  # Hw water
     54      18    2   0.556400  1.867213e+01  2.423625e+00  3.865901e+00  # Hw water
     55      19    1  -1.112800  2.559480e+01  7.442446e+00  1.501144e+00  # Ow water
     56      19    2   0.556400  2.625199e+01  6.771807e+00  1.687079e+00  # Hw water
     57      19    2   0.556400  2.602311e+01  8.267731e+00  1.728490e+00  # Hw water
     58      20    1  -1.112800  8.805841e+00  1.465937e+01  1.542103e+01  # Ow water
     59      20    2   0.556400  9.579129e+00  1.446884e+01  1.595202e+01  # Hw water
     60      20    2   0.556400  8.965992e+00  1.420695e+01  1.459284e+01  # Hw water
     61      21    1  -1.112800  1.580547e+01  7.473346e+00  2.541744e+01  # Ow water
     62      21    2   0.556400  1.669182e+01  7.461076e+00  2.577863e+01  # Hw water
     63      21    2   0.556400  1.546626e+01  6.593891e+00  2.558397e+01  # Hw water
     64      22    1  -1.112800  2.483912e+01  9.907143e+00  9.031989e+00  # Ow water
     65      22    2   0.556400  2.542539e+01  1.055661e+01  9.420187e+00  # Hw water
     66      22    2   0.556400  2.398197e+01  1.010015e+01  9.411824e+00  # Hw water
     67      23    1  -1.112800  1.911417e+01  1.508948e+00  7.176938e+00  # Ow water
     68      23    2   0.556400  1.996759e+01  1.500000e+00  6.743545e+00  # Hw water
     69      23    2   0.556400  1.848075e+01  1.521703e+00  6.459413e+00  # Hw water
     70      24    1  -1.112800  3.093511e+01  3.016190e+01  2.417225e+00  # Ow water
     71      24    2   0.556400  3.106514e+01  2.963927e+01  3.208538e+00  # Hw water
     72      24    2   0.556400  3.106670e+01  3.106608e+01  2.702480e+00  # Hw water
     73      25    1  -1.112800  1.605553e+01  3.106670e+01  1.519301e+01  # Ow water
     74      25    2   0.556400  1.511945e+01  3.100341e+01  1.500335e+01  # Hw water
     75      25    2   0.556400  1.647541e+01  3.106392e+01  1.433282e+01  # Hw water
     76      26    1  -1.112800  2.686280e+01  2.649441e+01  1.112854e+01  # Ow water
     77      26    2   0.556400  2.679982e+01  2.561015e+01  1.148958e+01  # Hw water
     78      26    2   0.556400  2.756346e+01  2.690963e+01  1.163142e+01  # Hw water
     79      27    1  -1.112800  2.851449e+01  4.337221e+00  1.039645e+01  # Ow water
     80      27    2   0.556400  2.937051e+01  4.720318e+00  1.020491e+01  # Hw water
     81      27    2   0.556400  2.864202e+01  3.863611e+00  1.121844e+01  # Hw water
     82      28    1  -1.112800  1.552021e+01  1.747419e+01  3.059731e+01  # Ow water
     83      28    2   0.556400  1.598501e+01  1.678147e+01  3.106670e+01  # Hw water
     84      28    2   0.556400  1.461245e+01  1.739545e+01  3.089058e+01  # Hw water
     85      29    1  -1.112800  2.596681e+01  1.772392e+01  1.158912e+01  # Ow water
     86      29    2   0.556400  2.606788e+01  1.688760e+01  1.113462e+01  # Hw water
     87      29    2   0.556400  2.502004e+01  1.784970e+01  1.165258e+01  # Hw water
     88      30    1  -1.112800  3.556468e+00  3.312425e+00  2.360183e+01  # Ow water
     89      30    2   0.556400  3.704975e+00  3.444904e+00  2.266555e+01  # Hw water
     90      30    2   0.556400  4.433981e+00  3.293863e+00  2.398374e+01  # Hw water
     91      31    1  -1.112800  1.168628e+01  1.573269e+01  1.112877e+01  # Ow water
     92      31    2   0.556400  1.202035e+01  1.600947e+01  1.027553e+01  # Hw water
     93      31    2   0.556400  1.227528e+01  1.614329e+01  1.176179e+01  # Hw water
     94      32    1  -1.112800  1.700642e+01  2.884970e+01  2.162249e+01  # Ow water
     95      32    2   0.556400  1.629593e+01  2.918257e+01  2.217079e+01  # Hw water
     96      32    2   0.556400  1.777579e+01  2.886402e+01  2.219177e+01  # Hw water
     97      33    1  -1.112800  1.659012e+01  1.635520e+00  1.250109e+01  # Ow water
     98      33    2   0.556400  1.650089e+01  1.500000e+00  1.344444e+01  # Hw water
     99      33    2   0.556400  1.570632e+01  1.509287e+00  1.215585e+01  # Hw water
    100      34    1  -1.112800  1.360214e+01  1.799782e+00  2.003093e+01  # Ow water
    101      34    2   0.556400  1.270394e+01  1.500021e+00  2.017095e+01  # Hw water
    102      34    2   0.556400  1.407857e+01  1.500223e+00  2.080521e+01  # Hw water
    103      35    1  -1.112800  2.504914e+01  1.244957e+01  1.384397e+01  # Ow water
    104      35    2   0.556400  2.429419e+01  1.294293e+01  1.416471e+01  # Hw water
    105      35    2   0.556400  2.474376e+01  1.204430e+01  1.303235e+01  # Hw water
    106      36    1  -1.112800  6.032703e+00  9.129337e+00  7.305435e+00  # Ow water
    107      36    2   0.556400  6.515931e+00  9.669450e+00  7.930732e+00  # Hw water
    108      36    2   0.556400  6.050895e+00  8.250126e+00  7.683438e+00  # Hw water
    109      37    1  -1.112800  1.719779e+01  1.821563e+01  2.260093e+01  # Ow water
    110      37    2   0.556400  1.737674e+01  1.908505e+01  2.295914e+01  # Hw water
    111      37    2   0.556400  1.697980e+01  1.768156e+01  2.336480e+01  # Hw water
    112      38    1  -1.112800  2.281225e+01  1.637187e+01  1.462455e+01  # Ow water
    113      38    2   0.556400  2.298292e+01  1.544814e+01  1.480850e+01  # Hw water
    114      38    2   0.556400  2.203250e+01  1.657905e+01  1.513961e+01  # Hw water
    115      39    1  -1.112800  3.953183e+00  2.081010e+01  8.517711e+00  # Ow water
    116      39    2   0.556400  3.622822e+00  2.147326e+01  9.123773e+00  # Hw water
    117      39    2   0.556400  4.190471e+00  2.007058e+01  9.077208e+00  # Hw water
    118      40    1  -1.112800  2.808783e+01  2.247114e+01  1.433644e+01  # Ow water
    119      40    2   0.556400  2.845005e+01  2.172800e+01  1.385398e+01  # Hw water
    120      40    2   0.556400  2.871206e+01  2.262399e+01  1.504581e+01  # Hw water
    121      41    1  -1.112800  1.984278e+01  1.939978e+01  7.846366e+00  # Ow water
    122      41    2   0.556400  1.952006e+01  1.925998e+01  8.736612e+00  # Hw water
    123      41    2   0.556400  1.976451e+01  1.854364e+01  7.425505e+00  # Hw water
    124      42    1  -1.112800  3.106669e+01  4.515064e+00  2.096452e+01  # Ow water
    125      42    2   0.556400  3.099742e+01  3.786357e+00  2.034774e+01  # Hw water
    126      42    2   0.556400  3.099004e+01  5.298516e+00  2.041995e+01  # Hw water
    127      43    1  -1.112800  3.980570e+00  1.336790e+01  2.565773e+01  # Ow water
    128      43    2   0.556400  3.604879e+00  1.424786e+01  2.563052e+01  # Hw water
    129      43    2   0.556400  4.552917e+00  1.332751e+01  2.489156e+01  # Hw water
    130      44    1  -1.112800  2.784110e+01  2.362863e+01  2.406834e+00  # Ow water
    131      44    2   0.556400  2.751234e+01  2.365323e+01  3.305467e+00  # Hw water
    132      44    2   0.556400  2.877114e+01  2.342102e+01  2.497133e+00  # Hw water
    133      45    1  -1.112800  2.530656e+01  2.351180e+01  1.500031e+00  # Ow water
    134      45    2   0.556400  2.526367e+01  2.427957e+01  2.070043e+00  # Hw water
    135      45    2   0.556400  2.532446e+01  2.276722e+01  2.101283e+00  # Hw water
    136      46    1  -1.112800  7.667097e+00  2.724184e+01  1.491684e+01  # Ow water
    137      46    2   0.556400  7.650935e+00  2.645633e+01  1.437008e+01  # Hw water
    138      46    2   0.556400  7.153349e+00  2.700698e+01  1.568958e+01  # Hw water
    139      47    1  -1.112800  1.259620e+01  5.895690e+00  2.036851e+01  # Ow water
    140      47    2   0.556400  1.187118e+01  5.307275e+00  2.057909e+01  # Hw water
    141      47    2   0.556400  1.237687e+01  6.247601e+00  1.950579e+01  # Hw water
    142      48    1  -1.112800  2.108916e+01  1.562869e+00  2.299926e+01  # Ow water
    143      48    2   0.556400  2.019194e+01  1.500002e+00  2.267174e+01  # Hw water
    144      48    2   0.556400  2.163500e+01  1.516012e+00  2.221435e+01  # Hw water
    145      49    1  -1.112800  1.472259e+01  2.588391e+01  7.220083e+00  # Ow water
    146      49    2   0.556400  1.377440e+01  2.576481e+01  7.274581e+00  # Hw water
    147      49    2   0.556400  1.484688e+01  2.683277e+01  7.241018e+00  # Hw water
    148      50    1  -1.112800  1.183274e+01  1.606243e+01  4.958191e+00  # Ow water
    149      50    2   0.556400  1.135413e+01  1.532995e+01  4.570066e+00  # Hw water
    150      50    2   0.556400  1.180010e+01  1.674988e+01  4.292925e+00  # Hw water
    151      51    1  -1.112800  1.241732e+01  2.665021e+01  1.126831e+01  # Ow water
    152      51    2   0.556400  1.318886e+01  2.649010e+01  1.072487e+01  # Hw water
    153      51    2   0.556400  1.273735e+01  2.657569e+01  1.216734e+01  # Hw water
    154      52    1  -1.112800  2.089746e+00  1.764007e+01  1.625161e+00  # Ow water
    155      52    2   0.556400  1.512616e+00  1.691253e+01  1.857204e+00  # Hw water
    156      52    2   0.556400  1.500119e+00  1.838366e+01  1.500086e+00  # Hw water
    157      53    1  -1.112800  2.234200e+00  1.509870e+00  2.514924e+01  # Ow water
    158      53    2   0.556400  3.012720e+00  1.520622e+00  2.570603e+01  # Hw water
    159      53    2   0.556400  1.500011e+00  1.502795e+00  2.576336e+01  # Hw water
    160      54    1  -1.112800  2.109050e+01  6.692627e+00  4.304270e+00  # Ow water
    161      54    2   0.556400  2.093304e+01  6.590756e+00  3.365625e+00  # Hw water
    162      54    2   0.556400  2.172993e+01  7.402352e+00  4.364708e+00  # Hw water
    163      55    1  -1.112800  1.786860e+00  7.327909e+00  1.500175e+00  # Ow water
    164      55    2   0.556400  1.504918e+00  6.779409e+00  2.232216e+00  # Hw water
    165      55    2   0.556400  1.514453e+00  8.212475e+00  1.744237e+00  # Hw water
    166      56    1  -1.112800  1.085587e+01  2.616425e+01  9.046816e+00  # Ow water
    167      56    2   0.556400  1.125400e+01  2.530310e+01  9.173880e+00  # Hw water
    168      56    2   0.556400  1.149380e+01  2.664861e+01  8.522713e+00  # Hw water
    169      57    1  -1.112800  2.154487e+01  1.331775e+01  1.384890e+01  # Ow water
    170      57    2   0.556400  2.133201e+01  1.244183e+01  1.417091e+01  # Hw water
    171      57    2   0.556400  2.072491e+01  1.380617e+01  1.392206e+01  # Hw water
    172      58    1  -1.112800  8.142145e+00  1.595632e+00  1.855199e+01  # Ow water
    173      58    2   0.556400  7.476810e+00  1.500002e+00  1.923347e+01  # Hw water
    174      58    2   0.556400  8.974774e+00  1.500001e+00  1.901439e+01  # Hw water
    175      59    1  -1.112800  1.180896e+01  2.228013e+01  3.096937e+01  # Ow water
    176      59    2   0.556400  1.238309e+01  2.304003e+01  3.106503e+01  # Hw water
    177      59    2   0.556400  1.239058e+01  2.152615e+01  3.106670e+01  # Hw water
    178      60    1  -1.112800  3.092935e+01  8.609286e+00  2.483614e+01  # Ow water
    179      60    2   0.556400  3.106670e+01  9.554638e+00  2.489674e+01  # Hw water
    180      60    2   0.556400  3.106670e+01  8.289182e+00  2.572771e+01  # Hw water
    181      61    1  -1.112800  2.097720e+01  2.242908e+01  3.092425e+01  # Ow water
    182      61    2   0.556400  2.041690e+01  2.166620e+01  3.106670e+01  # Hw water
    183      61    2   0.556400  2.186621e+01  2.210369e+01  3.106576e+01  # Hw water
    184      62    1  -1.112800  9.878452e+00  3.106350e+01  2.243130e+01  # Ow water
    185      62    2   0.556400  9.629605e+00  3.013955e+01  2.240636e+01  # Hw water
    186      62    2   0.556400  1.081123e+01  3.106670e+01  2.221648e+01  # Hw water
    187      63    1  -1.112800  1.996834e+01  1.512913e+00  1.965377e+01  # Ow water
    188      63    2   0.556400  2.022458e+01  2.363888e+00  2.000932e+01  # Hw water
    189      63    2   0.556400  1.993488e+01  1.648681e+00  1.870684e+01  # Hw water
    190      64    1  -1.112800  1.947290e+01  1.758636e+01  2.101190e+01  # Ow water
    191      64    2   0.556400  1.897535e+01  1.822674e+01  2.050340e+01  # Hw water
    192      64    2   0.556400  1.970974e+01  1.690879e+01  2.037863e+01  # Hw water
    193      65    1  -1.112800  2.650073e+01  2.122039e+01  1.069168e+01  # Ow water
    194      65    2   0.556400  2.653241e+01  2.026445e+01  1.072913e+01  # Hw water
    195      65    2   0.556400  2.706062e+01  2.150750e+01  1.141300e+01  # Hw water
    196      66    1  -1.112800  7.373028e+00  1.500001e+00  8.619627e+00  # Ow water
    197      66    2   0.556400  8.237027e+00  1.500989e+00  8.207640e+00  # Hw water
    198      66    2   0.556400  7.490111e+00  2.005528e+00  9.423967e+00  # Hw water
    199      67    1  -1.112800  1.544046e+01  1.138532e+01  1.434204e+01  # Ow water
    200      67    2   0.556400  1.624791e+01  1.105610e+01  1.473685e+01  # Hw water
    201      67    2   0.556400  1.500010e+01  1.185360e+01  1.505128e+01  # Hw water
    202      68    1  -1.112800  1.424000e+01  1.182656e+01  7.947634e+00  # Ow water
    203      68    2   0.556400  1.437555e+01  1.262072e+01  8.464512e+00  # Hw water
    204      68    2   0.556400  1.496215e+01  1.125063e+01  8.198702e+00  # Hw water
    205      69    1  -1.112800  1.577144e+00  2.460216e+01  2.864807e+01  # Ow water
    206      69    2   0.556400  1.500001e+00  2.551760e+01  2.837930e+01  # Hw water
    207      69    2   0.556400  1.500001e+00  2.410554e+01  2.783343e+01  # Hw water
    208      70    1  -1.112800  3.101653e+01  7.088895e+00  1.143037e+01  # Ow water
    209      70    2   0.556400  3.106670e+01  6.819397e+00  1.051327e+01  # Hw water
    210      70    2   0.556400  3.009880e+01  6.958304e+00  1.166902e+01  # Hw water
    211      71    1  -1.112800  1.492759e+01  1.024940e+01  2.906100e+01  # Ow water
    212      71    2   0.556400  1.506460e+01  1.096221e+01  2.968498e+01  # Hw water
    213      71    2   0.556400  1.408553e+01  1.044763e+01  2.865129e+01  # Hw water
    214      72    1  -1.112800  2.931041e+01  2.387158e+01  2.287072e+01  # Ow water
    215      72    2   0.556400  2.857502e+01  2.334948e+01  2.319140e+01  # Hw water
    216      72    2   0.556400  2.915546e+01  2.474729e+01  2.322476e+01  # Hw water
    217      73    1  -1.112800  6.483768e+00  2.429054e+01  2.522809e+01  # Ow water
    218      73    2   0.556400  6.503766e+00  2.448893e+01  2.429189e+01  # Hw water
    219      73    2   0.556400  6.231051e+00  2.511537e+01  2.564285e+01  # Hw water
    220      74    1  -1.112800  1.911466e+01  1.138146e+01  2.044518e+00  # Ow water
    221      74    2   0.556400  1.874366e+01  1.068713e+01  1.500006e+00  # Hw water
    222      74    2   0.556400  1.986705e+01  1.170090e+01  1.546421e+00  # Hw water
    223      75    1  -1.112800  1.590054e+00  1.645302e+00  1.590433e+00  # Ow water
    224      75    2   0.556400  1.688818e+00  2.593282e+00  1.502059e+00  # Hw water
    225      75    2   0.556400  1.500032e+00  1.500159e+00  2.532271e+00  # Hw water
    226      76    1  -1.112800  1.726933e+01  2.057952e+00  1.866187e+01  # Ow water
    227      76    2   0.556400  1.718891e+01  1.541829e+00  1.946398e+01  # Hw water
    228      76    2   0.556400  1.689683e+01  1.500000e+00  1.797911e+01  # Hw water
    229      77    1  -1.112800  3.033101e+01  3.104755e+01  8.678801e+00  # Ow water
    230      77    2   0.556400  2.955372e+01  3.106411e+01  9.237178e+00  # Hw water
    231      77    2   0.556400  3.106667e+01  3.106670e+01  9.290899e+00  # Hw water
    232      78    1  -1.112800  2.404151e+01  3.055079e+01  2.976521e+01  # Ow water
    233      78    2   0.556400  2.395830e+01  3.106368e+01  3.056911e+01  # Hw water
    234      78    2   0.556400  2.358195e+01  3.106670e+01  2.910274e+01  # Hw water
    235      79    1  -1.112800  2.141245e+01  2.861049e+01  2.299504e+01  # Ow water
    236      79    2   0.556400  2.097709e+01  2.863382e+01  2.384718e+01  # Hw water
    237      79    2   0.556400  2.216886e+01  2.803907e+01  2.312755e+01  # Hw water
    238      80    1  -1.112800  2.159810e+01  2.005906e+01  2.094333e+00  # Ow water
    239      80    2   0.556400  2.226878e+01  2.064657e+01  1.746126e+00  # Hw water
    240      80    2   0.556400  2.160476e+01  1.930844e+01  1.500399e+00  # Hw water
    241      81    1  -1.112800  2.490837e+01  2.317130e+01  1.177838e+01  # Ow water
    242      81    2   0.556400  2.545276e+01  2.344611e+01  1.251618e+01  # Hw water
    243      81    2   0.556400  2.450241e+01  2.397970e+01  1.146545e+01  # Hw water
    244      82    1  -1.112800  6.983460e+00  3.068534e+01  1.626232e+01  # Ow water
    245      82    2   0.556400  6.854858e+00  2.977953e+01  1.598092e+01  # Hw water
    246      82    2   0.556400  6.979001e+00  3.064252e+01  1.721855e+01  # Hw water
    247      83    1  -1.112800  1.831160e+01  1.628741e+00  9.769282e+00  # Ow water
    248      83    2   0.556400  1.865674e+01  1.500050e+00  1.065277e+01  # Hw water
    249      83    2   0.556400  1.736422e+01  1.531278e+00  9.865170e+00  # Hw water
    250      84    1  -1.112800  1.355396e+01  1.532094e+01  7.198786e+00  # Ow water
    251      84    2   0.556400  1.447450e+01  1.527950e+01  7.457883e+00  # Hw water
    252      84    2   0.556400  1.307596e+01  1.498409e+01  7.956592e+00  # Hw water
    253      85    1  -1.112800  9.007132e+00  1.696983e+01  1.298506e+01  # Ow water
    254      85    2   0.556400  9.570004e+00  1.621460e+01  1.281470e+01  # Hw water
    255      85    2   0.556400  8.177710e+00  1.659035e+01  1.327537e+01  # Hw water
    256      86    1  -1.112800  2.345664e+01  1.125886e+01  6.055344e+00  # Ow water
    257      86    2   0.556400  2.391718e+01  1.201773e+01  5.697233e+00  # Hw water
    258      86    2   0.556400  2.354615e+01  1.134951e+01  7.004027e+00  # Hw water
    259      87    1  -1.112800  3.070906e+01  2.143460e+01  1.638346e+01  # Ow water
    260      87    2   0.556400  3.105000e+01  2.171726e+01  1.723203e+01  # Hw water
    261      87    2   0.556400  3.106670e+01  2.055506e+01  1.626203e+01  # Hw water
    262      88    1  -1.112800  1.623924e+01  9.678943e+00  6.152802e+00  # Ow water
    263      88    2   0.556400  1.708702e+01  9.467263e+00  5.762056e+00  # Hw water
    264      88    2   0.556400  1.600627e+01  1.052730e+01  5.775652e+00  # Hw water
    265      89    1  -1.112800  1.655173e+01  2.298363e+01  4.131709e+00  # Ow water
    266      89    2   0.556400  1.628293e+01  2.390224e+01  4.143121e+00  # Hw water
    267      89    2   0.556400  1.693596e+01  2.283526e+01  4.995757e+00  # Hw water
    268      90    1  -1.112800  2.765574e+01  2.570811e+01  1.409670e+01  # Ow water
    269      90    2   0.556400  2.706691e+01  2.502178e+01  1.441048e+01  # Hw water
    270      90    2   0.556400  2.830151e+01  2.580852e+01  1.479608e+01  # Hw water
    271      91    1  -1.112800  1.998430e+01  2.721058e+01  2.849483e+01  # Ow water
    272      91    2   0.556400  1.957776e+01  2.702155e+01  2.764913e+01  # Hw water
    273      91    2   0.556400  2.007928e+01  2.816297e+01  2.850793e+01  # Hw water
    274      92    1  -1.112800  1.678511e+01  1.554974e+00  2.133269e+00  # Ow water
    275      92    2   0.556400  1.606943e+01  1.500000e+00  1.500010e+00  # Hw water
    276      92    2   0.556400  1.635297e+01  1.526347e+00  2.986888e+00  # Hw water
    277      93    1  -1.112800  2.679349e+01  5.594620e+00  1.715689e+01  # Ow water
    278      93    2   0.556400  2.742605e+01  4.972806e+00  1.679711e+01  # Hw water
    279      93    2   0.556400  2.630877e+01  5.911842e+00  1.639489e+01  # Hw water
    280      94    1  -1.112800  2.239292e+01  5.119712e+00  2.780940e+01  # Ow water
    281      94    2   0.556400  2.317240e+01  5.008580e+00  2.835373e+01  # Hw water
    282      94    2   0.556400  2.271509e+01  5.539360e+00  2.701170e+01  # Hw water
    283      95    1  -1.112800  1.485578e+01  2.630564e+01  2.033053e+01  # Ow water
    284      95    2   0.556400  1.489482e+01  2.709221e+01  2.087461e+01  # Hw water
    285      95    2   0.556400  1.490081e+01  2.558038e+01  2.095358e+01  # Hw water
    286      96    1  -1.112800  1.719553e+00  8.464399e+00  8.384769e+00  # Ow water
    287      96    2   0.556400  2.386848e+00  9.115241e+00  8.167166e+00  # Hw water
    288      96    2   0.556400  1.502705e+00  8.639910e+00  9.300412e+00  # Hw water
    289      97    1  -1.112800  2.763836e+01  4.640939e+00  3.087505e+01  # Ow water
    290      97    2   0.556400  2.857000e+01  4.748574e+00  3.106659e+01  # Hw water
    291      97    2   0.556400  2.746243e+01  3.716612e+00  3.105083e+01  # Hw water
    292      98    1  -1.112800  1.697275e+01  1.826219e+01  9.009008e+00  # Ow water
    293      98    2   0.556400  1.715374e+01  1.801380e+01  8.102490e+00  # Hw water
    294      98    2   0.556400  1.662489e+01  1.746622e+01  9.411060e+00  # Hw water
    295      99    1  -1.112800  1.500001e+00  5.162760e+00  7.493390e+00  # Ow water
    296      99    2   0.556400  1.541253e+00  5.716301e+00  8.273210e+00  # Hw water
    297      99    2   0.556400  1.526739e+00  5.778057e+00  6.760640e+00  # Hw water
    298     100    1  -1.112800  2.448326e+00  1.500316e+00  5.572488e+00  # Ow water
    299     100    2   0.556400  1.500649e+00  1.561705e+00  5.452624e+00  # Hw water
    300     100    2   0.556400  2.807332e+00  1.573800e+00  4.688212e+00  # Hw water
    301     101    1  -1.112800  1.256839e+01  2.816721e+01  1.591294e+00  # Ow water
    302     101    2   0.556400  1.286761e+01  2.858303e+01  2.399866e+00  # Hw water
    303     101    2   0.556400  1.309878e+01  2.737368e+01  1.519000e+00  # Hw water
    304     102    1  -1.112800  8.066316e+00  1.527780e+01  1.005481e+01  # Ow water
    305     102    2   0.556400  7.570443e+00  1.573093e+01  1.073673e+01  # Hw water
    306     102    2   0.556400  8.917767e+00  1.571505e+01  1.004654e+01  # Hw water
    307     103    1  -1.112800  7.797832e+00  1.442261e+01  2.329651e+01  # Ow water
    308     103    2   0.556400  6.876044e+00  1.454549e+01  2.306971e+01  # Hw water
    309     103    2   0.556400  7.824868e+00  1.357491e+01  2.374023e+01  # Hw water
    310     104    1  -1.112800  1.520518e+00  2.720334e+01  1.311726e+01  # Ow water
    311     104    2   0.556400  2.449881e+00  2.724277e+01  1.334300e+01  # Hw water
    312     104    2   0.556400  1.500000e+00  2.678307e+01  1.225751e+01  # Hw water
    313     105    1  -1.112800  2.858179e+01  1.789163e+01  1.741504e+00  # Ow water
    314     105    2   0.556400  2.885028e+01  1.826999e+01  2.578753e+00  # Hw water
    315     105    2   0.556400  2.779359e+01  1.837812e+01  1.500050e+00  # Hw water
    316     106    1  -1.112800  9.631851e+00  1.074123e+01  7.724306e+00  # Ow water
    317     106    2   0.556400  1.023142e+01  1.061638e+01  6.988669e+00  # Hw water
    318     106    2   0.556400  1.013332e+01  1.125390e+01  8.358281e+00  # Hw water
    319     107    1  -1.112800  2.854770e+01  2.487859e+01  1.736745e+01  # Ow water
    320     107    2   0.556400  2.769888e+01  2.449276e+01  1.715099e+01  # Hw water
    321     107    2   0.556400  2.911566e+01  2.412766e+01  1.753999e+01  # Hw water
    322     108    1  -1.112800  1.808905e+01  1.965044e+00  2.819174e+01  # Ow water
    323     108    2   0.556400  1.886847e+01  1.568760e+00  2.858122e+01  # Hw water
    324     108    2   0.556400  1.736273e+01  1.637615e+00  2.872228e+01  # Hw water
    325     109    1  -1.112800  2.038276e+00  2.280661e+01  1.097355e+01  # Ow water
    326     109    2   0.556400  1.500000e+00  2.267739e+01  1.019266e+01  # Hw water
    327     109    2   0.556400  1.500101e+00  2.335050e+01  1.154869e+01  # Hw water
    328     110    1  -1.112800  4.033645e+00  4.558122e+00  3.012080e+01  # Ow water
    329     110    2   0.556400  4.065161e+00  4.405699e+00  3.106526e+01  # Hw water
    330     110    2   0.556400  3.601262e+00  3.781068e+00  2.976660e+01  # Hw water
    331     111    1  -1.112800  1.414311e+01  2.876526e+01  9.512176e+00  # Ow water
    332     111    2   0.556400  1.490985e+01  2.896456e+01  8.974948e+00  # Hw water
    333     111    2   0.556400  1.346131e+01  2.853465e+01  8.881147e+00  # Hw water
    334     112    1  -1.112800  1.912475e+01  2.486546e+01  1.818114e+01  # Ow water
    335     112    2   0.556400  1.874658e+01  2.469822e+01  1.731786e+01  # Hw water
    336     112    2   0.556400  1.940819e+01  2.400487e+01  1.848980e+01  # Hw water
    337     113    1  -1.112800  1.617216e+01  3.106670e+01  7.987530e+00  # Ow water
    338     113    2   0.556400  1.655012e+01  3.102774e+01  8.866083e+00  # Hw water
    339     113    2   0.556400  1.692584e+01  3.101655e+01  7.399590e+00  # Hw water
    340     114    1  -1.112800  4.486820e+00  1.883325e+01  1.412366e+01  # Ow water
    341     114    2   0.556400  5.210115e+00  1.887433e+01  1.349806e+01  # Hw water
    342     114    2   0.556400  4.263809e+00  1.974855e+01  1.429313e+01  # Hw water
    343     115    1  -1.112800  6.162666e+00  2.823678e+01  2.917514e+01  # Ow water
    344     115    2   0.556400  5.731799e+00  2.738969e+01  2.906105e+01  # Hw water
    345     115    2   0.556400  5.740296e+00  2.861921e+01  2.994428e+01  # Hw water
    346     116    1  -1.112800  1.065198e+01  8.173356e+00  2.488848e+01  # Ow water