LAMMPS (16 Mar 2018)
Reading data file ...
  orthogonal box = (0 0 0) to (25.8482 25.8482 25.8482)
  2 by 2 by 3 MPI processor grid
  reading atoms ...
  1572 atoms
  scanning bonds ...
  2 = max bonds/atom
  scanning angles ...
  1 = max angles/atom
  reading bonds ...
  1000 bonds
  reading angles ...
  500 angles
Finding 1-2 1-3 1-4 neighbors ...
  special bond factors lj:   0          0          0         
  special bond factors coul: 0          0          0         
  2 = max # of 1-2 neighbors
  1 = max # of 1-3 neighbors
  1 = max # of 1-4 neighbors
  2 = max # of special neighbors
Setting atom values ...
  500 settings made for charge
Setting atom values ...
  1000 settings made for charge
Setting atom values ...
  36 settings made for charge
Setting atom values ...
  36 settings made for charge
500 atoms in group wat
36 atoms in group K
36 atoms in group Cl
Finding SHAKE clusters ...
  0 = # of size 2 clusters
  0 = # of size 3 clusters
  0 = # of size 4 clusters
  500 = # of frozen angles
PPPM initialization ...
  extracting TIP4P info from pair style
  using 12-bit tables for long-range coulomb (../kspace.cpp:321)
  G vector (1/distance) = 0.309797
  grid = 24 24 24
  stencil order = 5
  estimated absolute RMS force accuracy = 0.00375155
  estimated relative force accuracy = 1.12977e-05
  using double precision FFTs
  3d grid and FFT values/proc = 5415 1152
Neighbor list info ...
  update every 1 steps, delay 0 steps, check yes
  max neighbors/atom: 2000, page size: 100000
  master list distance cutoff = 12.3092
  ghost atom cutoff = 12.3092
  binsize = 6.1546, bins = 5 5 5
  1 neighbor lists, perpetual/occasional/extra = 1 0 0
  (1) pair lj/cut/tip4p/long, perpetual
      attributes: half, newton on
      pair build: half/bin/newton
      stencil: half/bin/3d/newton
      bin: standard
Setting up Verlet run ...
  Unit style    : real
  Current step  : 0
  Time step     : 0.001
Per MPI rank memory allocation (min/avg/max) = 8.286 | 8.289 | 8.293 Mbytes
Step Density Temp Press TotEng 
       0    1.1241608    437.34234    3287235.8    2311.9202 
   10000    1.0212055    1119.0847    14847.117    383.69472 
Loop time of 39.8458 on 12 procs for 10000 steps with 1572 atoms

Performance: 0.022 ns/day, 1106.828 hours/ns, 250.967 timesteps/s
93.5% CPU use with 12 MPI tasks x no OpenMP threads

MPI task timing breakdown:
Section |  min time  |  avg time  |  max time  |%varavg| %total
---------------------------------------------------------------
Pair    | 21.617     | 23.365     | 26.431     |  30.4 | 58.64
Bond    | 0.0058774  | 0.0064244  | 0.0070637  |   0.4 |  0.02
Kspace  | 7.2471     | 10.309     | 12.056     |  45.8 | 25.87
Neigh   | 0.0017793  | 0.0017904  | 0.0018107  |   0.0 |  0.00
Comm    | 1.2121     | 1.2314     | 1.2536     |   1.1 |  3.09
Output  | 5.798e-05  | 8.0734e-05 | 0.00030984 |   0.0 |  0.00
Modify  | 4.4369     | 4.7157     | 4.7804     |   3.9 | 11.83
Other   |            | 0.2164     |            |       |  0.54

Nlocal:    131 ave 140 max 124 min
Histogram: 2 2 0 3 1 0 0 1 2 1
Nghost:    4116.5 ave 4181 max 4015 min
Histogram: 2 0 2 0 0 0 0 3 3 2
Neighs:    44043.1 ave 48404 max 40729 min
Histogram: 2 1 1 3 0 2 0 1 0 2

Total # of neighbors = 528517
Ave neighs/atom = 336.207
Ave special neighs/atom = 1.9084
Neighbor list builds = 1
Dangerous builds = 0
PPPM initialization ...
  extracting TIP4P info from pair style
  using 12-bit tables for long-range coulomb (../kspace.cpp:321)
  G vector (1/distance) = 0.31043
  grid = 25 25 25
  stencil order = 5
  estimated absolute RMS force accuracy = 0.00343755
  estimated relative force accuracy = 1.03521e-05
  using double precision FFTs
  3d grid and FFT values/proc = 6400 1875
Setting up Verlet run ...
  Unit style    : real
  Current step  : 10000
  Time step     : 0.01
Per MPI rank memory allocation (min/avg/max) = 8.324 | 8.349 | 8.395 Mbytes
Step Density Temp Press TotEng 
   10000    1.0212055    1119.0847    1450704.4    383.69193 
   20000    1.1608356     310.9265   -1258.1813   -7241.7043 
Loop time of 41.9198 on 12 procs for 10000 steps with 1572 atoms

Performance: 0.206 ns/day, 116.444 hours/ns, 238.551 timesteps/s
91.3% CPU use with 12 MPI tasks x no OpenMP threads

MPI task timing breakdown:
Section |  min time  |  avg time  |  max time  |%varavg| %total
---------------------------------------------------------------
Pair    | 21.281     | 22.73      | 25.531     |  25.9 | 54.22
Bond    | 0.0057616  | 0.006595   | 0.0078319  |   0.7 |  0.02
Kspace  | 8.1774     | 10.966     | 12.412     |  37.2 | 26.16
Neigh   | 0.015808   | 0.015852   | 0.015928   |   0.0 |  0.04
Comm    | 1.2441     | 1.2792     | 1.3064     |   1.5 |  3.05
Output  | 6.0737e-05 | 8.3506e-05 | 0.00032279 |   0.0 |  0.00
Modify  | 4.6232     | 5.1316     | 6.7828     |  22.5 | 12.24
Other   |            | 1.791      |            |       |  4.27

Nlocal:    131 ave 136 max 125 min
Histogram: 2 0 1 0 1 1 4 1 0 2
Nghost:    4258.67 ave 4318 max 4177 min
Histogram: 2 0 1 1 0 2 0 1 2 3
Neighs:    47071.2 ave 50578 max 44231 min
Histogram: 2 2 2 0 0 2 0 1 1 2

Total # of neighbors = 564854
Ave neighs/atom = 359.322
Ave special neighs/atom = 1.9084
Neighbor list builds = 9
Dangerous builds = 0
PPPM initialization ...
  extracting TIP4P info from pair style
  using 12-bit tables for long-range coulomb (../kspace.cpp:321)
  G vector (1/distance) = 0.310569
  grid = 24 24 24
  stencil order = 5
  estimated absolute RMS force accuracy = 0.00363381
  estimated relative force accuracy = 1.09431e-05
  using double precision FFTs
  3d grid and FFT values/proc = 5415 1152
Setting up Verlet run ...
  Unit style    : real
  Current step  : 20000
  Time step     : 0.1
Per MPI rank memory allocation (min/avg/max) = 8.286 | 8.29 | 8.293 Mbytes
Step Density Temp Press TotEng 
   20000    1.1608356     310.9265   -26300.092   -7241.7257 
   30000    1.1508786    308.37222   -419.44827   -8247.3265 
Loop time of 42.4214 on 12 procs for 10000 steps with 1572 atoms

Performance: 2.037 ns/day, 11.784 hours/ns, 235.730 timesteps/s
94.5% CPU use with 12 MPI tasks x no OpenMP threads

MPI task timing breakdown:
Section |  min time  |  avg time  |  max time  |%varavg| %total
---------------------------------------------------------------
Pair    | 24.079     | 26.112     | 28.203     |  28.8 | 61.55
Bond    | 0.0057225  | 0.0065789  | 0.0076585  |   0.7 |  0.02
Kspace  | 7.8489     | 9.9389     | 11.984     |  46.7 | 23.43
Neigh   | 0.08439    | 0.084641   | 0.084979   |   0.1 |  0.20
Comm    | 1.2799     | 1.2977     | 1.318      |   0.9 |  3.06
Output  | 6.102e-05  | 8.3309e-05 | 0.00031647 |   0.0 |  0.00
Modify  | 4.4854     | 4.762      | 4.8203     |   3.9 | 11.23
Other   |            | 0.2197     |            |       |  0.52

Nlocal:    131 ave 143 max 124 min
Histogram: 1 1 5 1 1 0 1 1 0 1
Nghost:    4231.75 ave 4263 max 4193 min
Histogram: 2 1 1 0 1 0 1 3 1 2
Neighs:    47768.8 ave 55344 max 42674 min
Histogram: 2 1 2 2 1 1 2 0 0 1

Total # of neighbors = 573226
Ave neighs/atom = 364.648
Ave special neighs/atom = 1.9084
Neighbor list builds = 43
Dangerous builds = 0
PPPM initialization ...
  extracting TIP4P info from pair style
  using 12-bit tables for long-range coulomb (../kspace.cpp:321)
  G vector (1/distance) = 0.310362
  grid = 24 24 24
  stencil order = 5
  estimated absolute RMS force accuracy = 0.00366502
  estimated relative force accuracy = 1.10371e-05
  using double precision FFTs
  3d grid and FFT values/proc = 5415 1152
Setting up Verlet run ...
  Unit style    : real
  Current step  : 30000
  Time step     : 0.2
Per MPI rank memory allocation (min/avg/max) = 8.286 | 8.311 | 8.536 Mbytes
Step Density Temp Press TotEng 
   30000    1.1508786    308.37222    -1306.504   -8247.3269 
   40000    1.1565826    291.97796    55.526496   -8415.5128 
Loop time of 42.8204 on 12 procs for 10000 steps with 1572 atoms

Performance: 4.035 ns/day, 5.947 hours/ns, 233.534 timesteps/s
94.3% CPU use with 12 MPI tasks x no OpenMP threads

MPI task timing breakdown:
Section |  min time  |  avg time  |  max time  |%varavg| %total
---------------------------------------------------------------
Pair    | 23.08      | 26.171     | 28.141     |  32.7 | 61.12
Bond    | 0.0058569  | 0.0066889  | 0.0079535  |   0.7 |  0.02
Kspace  | 8.1841     | 10.149     | 13.241     |  52.5 | 23.70
Neigh   | 0.17347    | 0.17382    | 0.17418    |   0.1 |  0.41
Comm    | 1.3215     | 1.3425     | 1.3675     |   1.1 |  3.14
Output  | 5.9724e-05 | 8.0527e-05 | 0.00029707 |   0.0 |  0.00
Modify  | 4.4842     | 4.7612     | 4.8175     |   3.9 | 11.12
Other   |            | 0.2165     |            |       |  0.51

Nlocal:    131 ave 141 max 119 min
Histogram: 1 1 0 2 2 1 0 2 0 3
Nghost:    4192.5 ave 4242 max 4139 min
Histogram: 2 0 0 2 3 0 1 1 2 1
Neighs:    47581 ave 53824 max 40914 min
Histogram: 1 1 3 0 1 1 1 1 1 2

Total # of neighbors = 570972
Ave neighs/atom = 363.214
Ave special neighs/atom = 1.9084
Neighbor list builds = 88
Dangerous builds = 0
PPPM initialization ...
  extracting TIP4P info from pair style
  using 12-bit tables for long-range coulomb (../kspace.cpp:321)
  G vector (1/distance) = 0.310481
  grid = 24 24 24
  stencil order = 5
  estimated absolute RMS force accuracy = 0.00364707
  estimated relative force accuracy = 1.09831e-05
  using double precision FFTs
  3d grid and FFT values/proc = 5415 1152
Setting up Verlet run ...
  Unit style    : real
  Current step  : 40000
  Time step     : 0.5
Per MPI rank memory allocation (min/avg/max) = 8.286 | 8.332 | 8.536 Mbytes
Step Density Temp Press TotEng 
   40000    1.1565826    291.97796   -2046.1851   -8415.5128 
   50000    1.1637662    288.92944    225.77501   -8352.2386 
Loop time of 43.9723 on 12 procs for 10000 steps with 1572 atoms

Performance: 9.824 ns/day, 2.443 hours/ns, 227.416 timesteps/s
93.7% CPU use with 12 MPI tasks x no OpenMP threads

MPI task timing breakdown:
Section |  min time  |  avg time  |  max time  |%varavg| %total
---------------------------------------------------------------
Pair    | 23.576     | 26.494     | 29.082     |  37.9 | 60.25
Bond    | 0.0060539  | 0.0066974  | 0.0075411  |   0.5 |  0.02
Kspace  | 8.0845     | 10.678     | 13.6       |  59.7 | 24.28
Neigh   | 0.43948    | 0.44033    | 0.44119    |   0.1 |  1.00
Comm    | 1.3334     | 1.3496     | 1.3677     |   0.9 |  3.07
Output  | 5.9739e-05 | 8.148e-05  | 0.00031395 |   0.0 |  0.00
Modify  | 4.5105     | 4.7855     | 4.8398     |   3.8 | 10.88
Other   |            | 0.2176     |            |       |  0.49

Nlocal:    131 ave 137 max 116 min
Histogram: 1 0 0 1 0 0 1 3 3 3
Nghost:    4233.58 ave 4299 max 4182 min
Histogram: 2 0 3 1 2 0 1 2 0 1
Neighs:    47713.2 ave 53314 max 43303 min
Histogram: 2 2 0 1 1 2 2 1 0 1

Total # of neighbors = 572559
Ave neighs/atom = 364.223
Ave special neighs/atom = 1.9084
Neighbor list builds = 219
Dangerous builds = 0
PPPM initialization ...
  extracting TIP4P info from pair style
  using 12-bit tables for long-range coulomb (../kspace.cpp:321)
  G vector (1/distance) = 0.31063
  grid = 24 24 24
  stencil order = 5
  estimated absolute RMS force accuracy = 0.00362472
  estimated relative force accuracy = 1.09157e-05
  using double precision FFTs
  3d grid and FFT values/proc = 5415 1152
Setting up Verlet run ...
  Unit style    : real
  Current step  : 0
  Time step     : 2
Per MPI rank memory allocation (min/avg/max) = 8.291 | 8.435 | 8.541 Mbytes
Step Density Temp Press TotEng 
       0    1.1637662    288.92944   -274.99478   -8352.2385 
  100000    1.1603673    294.83132   -1375.2348   -8461.2095 
  200000    1.1397666    299.94362    698.97544   -8381.7286 
  300000    1.1584995    293.83431   -163.17127   -8476.1863 
  400000    1.1421168    298.35228   -564.65073    -8503.246 
  500000    1.1607439    314.34489   -598.16241   -8312.1989 
  600000    1.1545085    317.54798   -486.41109   -8313.9683 
  700000    1.1731958    302.20626    471.92873   -8378.0592 
  800000     1.167815     301.8887    1017.5423   -8379.3641 
  900000    1.1456039     295.2857    643.12675   -8368.2483 
 1000000    1.1663223    299.37716    381.84261   -8384.6101 
 1100000    1.1408452    292.40919   -430.11252   -8391.7414 
 1200000    1.1479458     299.6621    737.91242   -8371.0736 
 1300000    1.1573137    290.00317   -571.41248   -8410.5513 
 1400000    1.1499196    294.87009    151.84395   -8398.0023 
 1500000    1.1520296    307.73711    339.34847   -8358.4114 
 1600000    1.1643608    299.77489    -76.49483   -8400.1313 
 1700000    1.1643251    294.25801    -84.17254   -8404.4865 
 1800000     1.144365    293.12988    146.60296   -8427.7481 
 1900000    1.1515053    300.47987     -243.805   -8438.1835 
 2000000    1.1311941    298.77018   -585.52689   -8337.3232 
 2100000    1.1713451    307.27034   -394.73554   -8458.9713 
 2200000    1.1394915    285.48276   -533.02894   -8408.6808 
 2300000    1.1385161    297.48837   -506.25152   -8364.3082 
 2400000    1.1587311    305.68777    753.67824   -8417.5067 
 2500000    1.1364147    294.91347      109.579   -8425.0583 
 2600000    1.1560354    301.34682   -877.32867   -8375.5049 
 2700000    1.1498092    301.86405   -904.65027   -8376.1951 
 2800000    1.1599907    304.84632   -248.94003   -8359.1001 
 2900000    1.1583562    301.31163    102.83027   -8435.4649 
 3000000    1.1594623    309.11364    358.68529   -8382.7117 
 3100000    1.1410692    310.21717   -529.16906   -8368.8539 
 3200000    1.1457766    293.93302   -920.33525   -8370.5267 
 3300000    1.1597096    284.90837     7.698812   -8443.2078 
 3400000    1.1511131    308.53404   -590.23018   -8359.2526 
 3500000    1.1438218    306.96935   -211.25153   -8410.0966 
 3600000    1.1511489     304.8277   -40.421094   -8325.1702 
 3700000    1.1444092    305.90091   -405.59628    -8397.218 
 3800000     1.150278    286.88136   -394.56413     -8391.62 
 3900000    1.1339414    309.50541   -705.14134   -8319.0464 
 4000000    1.1518785    292.31357    160.64832   -8460.3337 
 4100000    1.1599972    297.77915    -376.1634   -8379.7941 
 4200000    1.1609854    284.36055    709.11533   -8416.0847 
 4300000    1.1383672     302.5511   -744.78849   -8410.5989 
 4400000     1.151159    301.67641    523.86926   -8356.7043 
 4500000    1.1568235     288.3515    667.76138   -8410.9784 
 4600000    1.1551735    306.26704    865.29358   -8332.2196 
 4700000    1.1438535    297.74395   -1054.1418   -8442.4142 
 4800000    1.1641817    285.29451    547.84124   -8469.8005 
 4900000    1.1568159    296.10736   -56.839386   -8382.5728 
 5000000    1.1433076    312.83883    183.41046   -8265.0033 
Loop time of 22939.1 on 12 procs for 5000000 steps with 1572 atoms

Performance: 37.665 ns/day, 0.637 hours/ns, 217.968 timesteps/s
93.7% CPU use with 12 MPI tasks x no OpenMP threads

MPI task timing breakdown:
Section |  min time  |  avg time  |  max time  |%varavg| %total
---------------------------------------------------------------
Pair    | 12537      | 13431      | 14314      | 523.2 | 58.55
Bond    | 2.9566     | 3.363      | 3.9972     |  15.2 |  0.01
Kspace  | 4531       | 5413.8     | 6305.8     | 824.9 | 23.60
Neigh   | 817.54     | 818.33     | 819.09     |   1.6 |  3.57
Comm    | 739.15     | 746.52     | 755.86     |  18.1 |  3.25
Output  | 0.003056   | 0.0041891  | 0.016298   |   5.6 |  0.00
Modify  | 2276.9     | 2415.3     | 2444       |  86.1 | 10.53
Other   |            | 110.8      |            |       |  0.48

Nlocal:    131 ave 140 max 119 min
Histogram: 2 0 1 1 0 2 0 1 4 1
Nghost:    4217.67 ave 4267 max 4165 min
Histogram: 1 0 3 0 2 2 1 1 1 1
Neighs:    47320.1 ave 52675 max 39233 min
Histogram: 1 0 1 1 0 4 1 0 1 3

Total # of neighbors = 567841
Ave neighs/atom = 361.222
Ave special neighs/atom = 1.9084
Neighbor list builds = 401496
Dangerous builds = 0
PPPM initialization ...
  extracting TIP4P info from pair style
  using 12-bit tables for long-range coulomb (../kspace.cpp:321)
  G vector (1/distance) = 0.310204
  grid = 24 24 24
  stencil order = 5
  estimated absolute RMS force accuracy = 0.00368913
  estimated relative force accuracy = 1.11097e-05
  using double precision FFTs
  3d grid and FFT values/proc = 5415 1152
Setting up Verlet run ...
  Unit style    : real
  Current step  : 0
  Time step     : 2
Per MPI rank memory allocation (min/avg/max) = 8.658 | 8.663 | 8.666 Mbytes
Step Density Temp Press TotEng 
       0    1.1433076    312.83883    225.67743   -8265.0041 
  100000    1.1644345    291.58846   -404.04044    -8395.138 
  200000    1.1581316    302.48015    744.20722   -8405.6676 
  300000    1.1611369    291.87425   -1059.9301   -8474.1942 
  400000    1.1467086    302.05511   -368.18779   -8340.5055 
  500000    1.1454312    319.19816   -1219.2148   -8319.8877 
  600000    1.1632609    293.84776    1151.0393   -8378.5802 
  700000    1.1521587    301.69342   -113.52708    -8373.061 
  800000    1.1614933    296.61689    42.922113   -8395.0407 
  900000    1.1596816    292.27343   -289.29516   -8377.6537 
 1000000    1.1373705     307.9057    832.93388   -8288.8566 
 1100000    1.1507269    299.03143   -932.26776   -8383.9516 
 1200000    1.1371348    310.91751   -200.09334   -8235.7068 
 1300000    1.1593696    304.14597    1498.9661   -8334.0025 
 1400000    1.1437344    295.42789    68.313204   -8375.6165 
 1500000    1.1540138    290.35398    1028.6396   -8441.4789 
 1600000    1.1650172    306.98822    790.24153   -8356.5824 
 1700000     1.165713    287.06096    12.880079   -8467.8104 
 1800000    1.1720144    306.90689    809.45063   -8367.8238 
 1900000    1.1423272    308.80627    302.29298   -8390.4778 
 2000000     1.150993    301.09001    225.24453   -8407.5858 
 2100000    1.1603413    298.12881   -1092.6352   -8402.9295 
 2200000    1.1336132    296.78468   -112.94287   -8406.1428 
 2300000    1.1554214    298.62145    1329.3305   -8353.8947 
 2400000    1.1508872    306.90476   -640.88804   -8360.6872 
 2500000    1.1413609    295.04958   -1055.5383   -8378.2863 
 2600000    1.1449161    289.91911    -1067.704   -8427.5204 
 2700000    1.1444045    307.20953   -2153.1051   -8358.2541 
 2800000    1.1554265    305.96548    809.86277   -8400.9982 
 2900000    1.1466595    289.71299   -150.14664   -8396.8351 
 3000000    1.1585451    302.26563    851.00506   -8381.8558 
 3100000    1.1536245    285.78513   -960.32046   -8509.4966 
 3200000    1.1505534    293.38015   -533.20092   -8445.1011 
 3300000    1.1575726    296.94094    578.79268    -8383.851 
 3400000    1.1595747    293.19962   -301.51321    -8398.284 
 3500000    1.1666981    301.11595   -61.601164   -8440.4469 
 3600000    1.1537662    306.94397    475.37552   -8415.7619 
 3700000    1.1501536    300.89145    469.94962   -8382.0621 
 3800000     1.173542    286.86762   -282.21101   -8430.8846 
 3900000    1.1392619    282.90863    237.11472   -8395.5977 
 4000000    1.1572532     301.7218    100.26069   -8370.7754 
 4100000    1.1532386    289.18412    614.70191   -8403.5069 
 4200000    1.1513563    305.70248   -237.18532   -8335.2447 
 4300000    1.1465979    292.06669    87.242451   -8416.3265 
 4400000    1.1582257    296.50239   -935.43444   -8421.5755 
 4500000    1.1583355    293.66363    188.77942   -8411.9951 
 4600000     1.166161     307.8865    -159.8526   -8438.4077 
 4700000    1.1486635    310.05495   -1191.6891   -8380.2394 
 4800000     1.163467    285.78914    208.06644    -8433.578 
 4900000    1.1707129    295.36854    784.83737   -8381.8518 
 5000000    1.1442636    294.12486   -284.86441   -8384.1934 
Loop time of 23090.3 on 12 procs for 5000000 steps with 1572 atoms

Performance: 37.418 ns/day, 0.641 hours/ns, 216.541 timesteps/s
93.7% CPU use with 12 MPI tasks x no OpenMP threads

MPI task timing breakdown:
Section |  min time  |  avg time  |  max time  |%varavg| %total
---------------------------------------------------------------
Pair    | 12534      | 13460      | 14455      | 527.0 | 58.29
Bond    | 3.1522     | 3.3808     | 3.8112     |  10.3 |  0.01
Kspace  | 4363.9     | 5357.9     | 6289.9     | 836.3 | 23.20
Neigh   | 817.77     | 818.56     | 819.33     |   1.6 |  3.55
Comm    | 742.11     | 748.92     | 759.96     |  19.4 |  3.24
Output  | 0.2192     | 0.21988    | 0.22665    |   0.4 |  0.00
Modify  | 2451.7     | 2590.1     | 2619.1     |  83.2 | 11.22
Other   |            | 110.9      |            |       |  0.48

Nlocal:    131 ave 139 max 120 min
Histogram: 1 1 0 0 3 1 0 3 2 1
Nghost:    4181.33 ave 4257 max 4127 min
Histogram: 2 2 0 1 4 0 1 1 0 1
Neighs:    47375.1 ave 52990 max 40589 min
Histogram: 1 0 2 2 0 0 3 1 1 2

Total # of neighbors = 568501
Ave neighs/atom = 361.642
Ave special neighs/atom = 1.9084
Neighbor list builds = 401498
Dangerous builds = 0
Changing box ...
  orthogonal box = (0.0761326 0.0761326 0.0761326) to (25.7106 25.7721 25.7721)
  orthogonal box = (0.0761326 0.0761326 0.0761326) to (25.7106 25.7106 25.7721)
  orthogonal box = (0.0761326 0.0761326 0.0761326) to (25.7106 25.7106 25.7106)
PPPM initialization ...
  extracting TIP4P info from pair style
  using 12-bit tables for long-range coulomb (../kspace.cpp:321)
  G vector (1/distance) = 0.310397
  grid = 24 24 24
  stencil order = 5
  estimated absolute RMS force accuracy = 0.00365983
  estimated relative force accuracy = 1.10215e-05
  using double precision FFTs
  3d grid and FFT values/proc = 5415 1152
Setting up Verlet run ...
  Unit style    : real
  Current step  : 5000000
  Time step     : 0.001
Per MPI rank memory allocation (min/avg/max) = 8.659 | 8.663 | 8.666 Mbytes
Step Density Temp Press TotEng 
 5000000    1.1525234    294.12486    186773.61   -8320.2189 
 5010000    1.1525234    307.82281    767.13836   -8376.3079 
Loop time of 29.4736 on 12 procs for 10000 steps with 1572 atoms

Performance: 0.029 ns/day, 818.710 hours/ns, 339.287 timesteps/s
94.5% CPU use with 12 MPI tasks x no OpenMP threads

MPI task timing breakdown:
Section |  min time  |  avg time  |  max time  |%varavg| %total
---------------------------------------------------------------
Pair    | 15.969     | 18.264     | 19.901     |  30.3 | 61.97
Bond    | 0.0033451  | 0.0038973  | 0.0043986  |   0.5 |  0.01
Kspace  | 7.0106     | 8.5806     | 10.85      |  43.7 | 29.11
Neigh   | 0          | 0          | 0          |   0.0 |  0.00
Comm    | 1.3381     | 1.3928     | 1.4743     |   3.4 |  4.73
Output  | 6.2853e-05 | 8.1821e-05 | 0.00027493 |   0.0 |  0.00
Modify  | 1.0429     | 1.0582     | 1.0823     |   1.0 |  3.59
Other   |            | 0.1744     |            |       |  0.59

Nlocal:    131 ave 139 max 120 min
Histogram: 1 1 1 1 1 0 1 3 1 2
Nghost:    4190.83 ave 4266 max 4132 min
Histogram: 2 1 1 1 3 1 1 0 1 1
Neighs:    47714.8 ave 52857 max 41726 min
Histogram: 2 0 1 1 2 0 2 1 1 2

Total # of neighbors = 572577
Ave neighs/atom = 364.235
Ave special neighs/atom = 1.9084
Neighbor list builds = 0
Dangerous builds = 0
PPPM initialization ...
  extracting TIP4P info from pair style
  using 12-bit tables for long-range coulomb (../kspace.cpp:321)
  G vector (1/distance) = 0.310397
  grid = 24 24 24
  stencil order = 5
  estimated absolute RMS force accuracy = 0.00365983
  estimated relative force accuracy = 1.10215e-05
  using double precision FFTs
  3d grid and FFT values/proc = 5415 1152
Setting up Verlet run ...
  Unit style    : real
  Current step  : 5010000
  Time step     : 0.01
Per MPI rank memory allocation (min/avg/max) = 8.659 | 8.663 | 8.666 Mbytes
Step Density Temp Press TotEng 
 5010000    1.1525234    307.82281    767.15043   -8376.3079 
 5020000    1.1525234    305.09787    375.64056   -8399.9588 
Loop time of 29.9072 on 12 procs for 10000 steps with 1572 atoms

Performance: 0.289 ns/day, 83.076 hours/ns, 334.368 timesteps/s
94.1% CPU use with 12 MPI tasks x no OpenMP threads

MPI task timing breakdown:
Section |  min time  |  avg time  |  max time  |%varavg| %total
---------------------------------------------------------------
Pair    | 16.129     | 18.223     | 20.363     |  30.8 | 60.93
Bond    | 0.0033782  | 0.0038728  | 0.0042405  |   0.4 |  0.01
Kspace  | 7.0075     | 9.1388     | 11.212     |  43.0 | 30.56
Neigh   | 0.0058441  | 0.005859   | 0.0058725  |   0.0 |  0.02
Comm    | 1.2654     | 1.3083     | 1.3464     |   1.9 |  4.37
Output  | 5.953e-05  | 7.8738e-05 | 0.00027926 |   0.0 |  0.00
Modify  | 1.0487     | 1.0616     | 1.0709     |   0.7 |  3.55
Other   |            | 0.1654     |            |       |  0.55

Nlocal:    131 ave 140 max 119 min
Histogram: 1 0 1 1 1 2 2 1 2 1
Nghost:    4188.17 ave 4271 max 4108 min
Histogram: 2 1 1 0 0 4 2 0 0 2
Neighs:    47708.7 ave 54694 max 42086 min
Histogram: 2 0 3 1 1 1 1 2 0 1

Total # of neighbors = 572504
Ave neighs/atom = 364.188
Ave special neighs/atom = 1.9084
Neighbor list builds = 3
Dangerous builds = 0
PPPM initialization ...
  extracting TIP4P info from pair style
  using 12-bit tables for long-range coulomb (../kspace.cpp:321)
  G vector (1/distance) = 0.310397
  grid = 24 24 24
  stencil order = 5
  estimated absolute RMS force accuracy = 0.00365983
  estimated relative force accuracy = 1.10215e-05
  using double precision FFTs
  3d grid and FFT values/proc = 5415 1152
Setting up Verlet run ...
  Unit style    : real
  Current step  : 5020000
  Time step     : 0.1
Per MPI rank memory allocation (min/avg/max) = 8.659 | 8.663 | 8.666 Mbytes
Step Density Temp Press TotEng 
 5020000    1.1525234    305.09787    375.90298   -8399.9588 
 5030000    1.1525234    291.96038    15.309978   -8441.9932 
Loop time of 30.2254 on 12 procs for 10000 steps with 1572 atoms

Performance: 2.859 ns/day, 8.396 hours/ns, 330.847 timesteps/s
93.8% CPU use with 12 MPI tasks x no OpenMP threads

MPI task timing breakdown:
Section |  min time  |  avg time  |  max time  |%varavg| %total
---------------------------------------------------------------
Pair    | 16.775     | 18.384     | 20.289     |  27.3 | 60.82
Bond    | 0.0034255  | 0.0039038  | 0.0042876  |   0.4 |  0.01
Kspace  | 7.287      | 9.1772     | 10.785     |  38.1 | 30.36
Neigh   | 0.07775    | 0.077876   | 0.07798    |   0.0 |  0.26
Comm    | 1.3119     | 1.3611     | 1.4009     |   1.9 |  4.50
Output  | 6.2153e-05 | 8.1563e-05 | 0.0002826  |   0.0 |  0.00
Modify  | 1.0463     | 1.0542     | 1.0648     |   0.7 |  3.49
Other   |            | 0.1674     |            |       |  0.55

Nlocal:    131 ave 147 max 121 min
Histogram: 3 1 2 0 2 2 0 0 0 2
Nghost:    4225.67 ave 4284 max 4141 min
Histogram: 1 1 0 1 2 1 0 3 1 2
Neighs:    47682.9 ave 55877 max 41814 min
Histogram: 2 1 1 2 2 1 1 1 0 1

Total # of neighbors = 572195
Ave neighs/atom = 363.992
Ave special neighs/atom = 1.9084
Neighbor list builds = 39
Dangerous builds = 0
PPPM initialization ...
  extracting TIP4P info from pair style
  using 12-bit tables for long-range coulomb (../kspace.cpp:321)
  G vector (1/distance) = 0.310397
  grid = 24 24 24
  stencil order = 5
  estimated absolute RMS force accuracy = 0.00365983
  estimated relative force accuracy = 1.10215e-05
  using double precision FFTs
  3d grid and FFT values/proc = 5415 1152
Setting up Verlet run ...
  Unit style    : real
  Current step  : 5030000
  Time step     : 0.2
Per MPI rank memory allocation (min/avg/max) = 8.659 | 8.663 | 8.666 Mbytes
Step Density Temp Press TotEng 
 5030000    1.1525234    291.96038    15.208546   -8441.9932 
 5040000    1.1525234    299.27608    23.328483   -8382.4118 
Loop time of 30.5312 on 12 procs for 10000 steps with 1572 atoms

Performance: 5.660 ns/day, 4.240 hours/ns, 327.534 timesteps/s
93.3% CPU use with 12 MPI tasks x no OpenMP threads

MPI task timing breakdown:
Section |  min time  |  avg time  |  max time  |%varavg| %total
---------------------------------------------------------------
Pair    | 16.641     | 18.452     | 20.342     |  27.3 | 60.44
Bond    | 0.0033941  | 0.0039325  | 0.0042536  |   0.4 |  0.01
Kspace  | 7.4441     | 9.3128     | 11.099     |  37.8 | 30.50
Neigh   | 0.16209    | 0.16234    | 0.16258    |   0.0 |  0.53
Comm    | 1.3171     | 1.3686     | 1.4002     |   2.2 |  4.48
Output  | 5.9173e-05 | 7.908e-05  | 0.00028129 |   0.0 |  0.00
Modify  | 1.0512     | 1.0642     | 1.0779     |   0.8 |  3.49
Other   |            | 0.1672     |            |       |  0.55

Nlocal:    131 ave 143 max 121 min
Histogram: 3 1 0 0 1 4 0 2 0 1
Nghost:    4221.08 ave 4256 max 4170 min
Histogram: 2 1 0 1 0 0 2 2 0 4
Neighs:    47689.8 ave 53709 max 41859 min
Histogram: 2 0 3 0 1 1 1 1 2 1

Total # of neighbors = 572277
Ave neighs/atom = 364.044
Ave special neighs/atom = 1.9084
Neighbor list builds = 81
Dangerous builds = 0
PPPM initialization ...
  extracting TIP4P info from pair style
  using 12-bit tables for long-range coulomb (../kspace.cpp:321)
  G vector (1/distance) = 0.310397
  grid = 24 24 24
  stencil order = 5
  estimated absolute RMS force accuracy = 0.00365983
  estimated relative force accuracy = 1.10215e-05
  using double precision FFTs
  3d grid and FFT values/proc = 5415 1152
Setting up Verlet run ...
  Unit style    : real
  Current step  : 5040000
  Time step     : 0.5
Per MPI rank memory allocation (min/avg/max) = 8.659 | 8.663 | 8.666 Mbytes
Step Density Temp Press TotEng 
 5040000    1.1525234    299.27608    21.131305   -8382.4118 
 5050000    1.1525234    291.92043    -571.5203   -8425.2553 
Loop time of 30.876 on 12 procs for 10000 steps with 1572 atoms

Performance: 13.991 ns/day, 1.715 hours/ns, 323.876 timesteps/s
93.7% CPU use with 12 MPI tasks x no OpenMP threads

MPI task timing breakdown:
Section |  min time  |  avg time  |  max time  |%varavg| %total
---------------------------------------------------------------
Pair    | 16.78      | 18.67      | 20.178     |  25.4 | 60.47
Bond    | 0.0034432  | 0.0039269  | 0.0043041  |   0.4 |  0.01
Kspace  | 7.6644     | 9.1671     | 11.021     |  35.7 | 29.69
Neigh   | 0.40446    | 0.40508    | 0.40541    |   0.0 |  1.31
Comm    | 1.3566     | 1.3857     | 1.4252     |   1.7 |  4.49
Output  | 6.1437e-05 | 8.042e-05  | 0.00027445 |   0.0 |  0.00
Modify  | 1.0678     | 1.0756     | 1.0856     |   0.6 |  3.48
Other   |            | 0.169      |            |       |  0.55

Nlocal:    131 ave 141 max 122 min
Histogram: 2 1 0 1 2 2 2 0 1 1
Nghost:    4209.92 ave 4246 max 4188 min
Histogram: 2 2 1 2 0 2 2 0 0 1
Neighs:    47677.4 ave 51751 max 40789 min
Histogram: 1 1 1 0 0 1 2 1 2 3

Total # of neighbors = 572129
Ave neighs/atom = 363.95
Ave special neighs/atom = 1.9084
Neighbor list builds = 202
Dangerous builds = 0
PPPM initialization ...
  extracting TIP4P info from pair style
  using 12-bit tables for long-range coulomb (../kspace.cpp:321)
  G vector (1/distance) = 0.310397
  grid = 24 24 24
  stencil order = 5
  estimated absolute RMS force accuracy = 0.00365983
  estimated relative force accuracy = 1.10215e-05
  using double precision FFTs
  3d grid and FFT values/proc = 5415 1152
Setting up Verlet run ...
  Unit style    : real
  Current step  : 5050000
  Time step     : 2
Per MPI rank memory allocation (min/avg/max) = 8.659 | 8.663 | 8.666 Mbytes
Step Density Temp Press TotEng 
 5050000    1.1525234    291.92043   -585.33186   -8425.2553 
 5100000    1.1525234    295.12774    326.37523   -8394.2147 
 5200000    1.1525234    300.13995   -353.86761   -8435.5572 
 5300000    1.1525234    291.01648   -561.73132   -8354.4753 
 5400000    1.1525234     295.7011    184.15908   -8462.5004 
 5500000    1.1525234    291.38465   -804.95032   -8392.3321 
 5600000    1.1525234    300.21714   -391.86617   -8326.6553 
 5700000    1.1525234    312.80607    237.33637   -8338.6684 
 5800000    1.1525234    298.26999   -272.97336   -8382.5859 
 5900000    1.1525234    280.25086   -1086.4845   -8450.8201 
 6000000    1.1525234    292.04997    192.86891   -8442.1274 
 6100000    1.1525234    285.24398    428.59299   -8449.1839 
 6200000    1.1525234    297.60485   -574.08332   -8355.8314 
 6300000    1.1525234    303.86016    818.24915    -8377.309 
 6400000    1.1525234    296.44597   -599.01408   -8398.2812 
 6500000    1.1525234    304.06399    674.85023    -8415.406 
 6600000    1.1525234     305.7802    234.10651   -8354.9239 
 6700000    1.1525234    290.38581   -106.51501   -8395.2117 
 6800000    1.1525234    298.45034   -430.81993   -8397.9109 
 6900000    1.1525234    283.95853    768.19926   -8423.1827 
 7000000    1.1525234    304.49727   -637.68145   -8368.5087 
 7100000    1.1525234    299.50071    311.59113   -8382.9288 
 7200000    1.1525234    292.20667   -375.89213     -8466.52 
 7300000    1.1525234    302.24743    864.33505   -8343.8263 
 7400000    1.1525234    298.50407   -189.81546   -8420.8332 
 7500000    1.1525234    290.31182    988.15779   -8481.7145 
 7550000    1.1525234    301.01835   -61.458032   -8437.7585 
Loop time of 8267.7 on 12 procs for 2500000 steps with 1572 atoms

Performance: 52.252 ns/day, 0.459 hours/ns, 302.382 timesteps/s
93.2% CPU use with 12 MPI tasks x no OpenMP threads

MPI task timing breakdown:
Section |  min time  |  avg time  |  max time  |%varavg| %total
---------------------------------------------------------------
Pair    | 4440.9     | 4753.6     | 5080.8     | 309.9 | 57.50
Bond    | 0.87027    | 0.98873    | 1.0614     |   5.0 |  0.01
Kspace  | 2081.8     | 2407.6     | 2725.4     | 434.3 | 29.12
Neigh   | 404.56     | 404.99     | 405.41     |   1.2 |  4.90
Comm    | 369.73     | 376.91     | 381.78     |  20.4 |  4.56
Output  | 0.10938    | 0.10975    | 0.11353    |   0.3 |  0.00
Modify  | 278.66     | 280.69     | 282.88     |   8.1 |  3.40
Other   |            | 42.89      |            |       |  0.52

Nlocal:    131 ave 142 max 120 min
Histogram: 1 1 1 1 2 2 1 1 1 1
Nghost:    4217.42 ave 4296 max 4162 min
Histogram: 2 0 3 1 2 1 2 0 0 1
Neighs:    47665.8 ave 55393 max 43080 min
Histogram: 3 0 2 3 1 0 2 0 0 1

Total # of neighbors = 571989
Ave neighs/atom = 363.861
Ave special neighs/atom = 1.9084
Neighbor list builds = 198493
Dangerous builds = 0
PPPM initialization ...
  extracting TIP4P info from pair style
  using 12-bit tables for long-range coulomb (../kspace.cpp:321)
  G vector (1/distance) = 0.310397
  grid = 24 24 24
  stencil order = 5
  estimated absolute RMS force accuracy = 0.00365983
  estimated relative force accuracy = 1.10215e-05
  using double precision FFTs
  3d grid and FFT values/proc = 5415 1152
Setting up Verlet run ...
  Unit style    : real
  Current step  : 0
  Time step     : 2
Per MPI rank memory allocation (min/avg/max) = 14.31 | 14.31 | 14.32 Mbytes
Step Density Temp Press TotEng 
       0    1.1525234    301.01835   -61.973354   -8437.7585 
  100000    1.1525234     299.2578   -129.35378   -8372.5827 
  200000    1.1525234    304.50942    -656.5033   -8390.6643 
  250000    1.1525234    303.03629    -733.9974   -8334.1126 
Loop time of 1283.76 on 12 procs for 250000 steps with 1572 atoms

Performance: 33.651 ns/day, 0.713 hours/ns, 194.741 timesteps/s
93.1% CPU use with 12 MPI tasks x no OpenMP threads

MPI task timing breakdown:
Section |  min time  |  avg time  |  max time  |%varavg| %total
---------------------------------------------------------------
Pair    | 709.9      | 766.03     | 834.05     | 145.3 | 59.67
Bond    | 3.295      | 3.3509     | 3.3862     |   1.6 |  0.26
Kspace  | 289.65     | 357.75     | 413.86     | 212.9 | 27.87
Neigh   | 40.673     | 40.723     | 40.764     |   0.4 |  3.17
Comm    | 38.604     | 38.884     | 39.198     |   3.1 |  3.03
Output  | 0.069905   | 0.070197   | 0.070589   |   0.1 |  0.01
Modify  | 71.742     | 72.048     | 72.253     |   1.7 |  5.61
Other   |            | 4.899      |            |       |  0.38

Nlocal:    131 ave 140 max 121 min
Histogram: 1 2 1 0 1 0 4 1 0 2
Nghost:    4225.42 ave 4289 max 4166 min
Histogram: 2 1 1 2 0 0 3 0 1 2
Neighs:    47724.2 ave 51700 max 41944 min
Histogram: 1 0 2 0 2 0 2 1 1 3

Total # of neighbors = 572691
Ave neighs/atom = 364.307
Ave special neighs/atom = 1.9084
Neighbor list builds = 19870
Dangerous builds = 0
PPPM initialization ...
  extracting TIP4P info from pair style
  using 12-bit tables for long-range coulomb (../kspace.cpp:321)
  G vector (1/distance) = 0.310397
  grid = 24 24 24
  stencil order = 5
  estimated absolute RMS force accuracy = 0.00365983
  estimated relative force accuracy = 1.10215e-05
  using double precision FFTs
  3d grid and FFT values/proc = 5415 1152
Setting up Verlet run ...
  Unit style    : real
  Current step  : 250000
  Time step     : 2
Per MPI rank memory allocation (min/avg/max) = 14.31 | 14.31 | 14.32 Mbytes
Step Density Temp Press TotEng 
  250000    1.1525234    303.03629   -734.27608   -8334.1126 
  300000    1.1525234    292.35709    -564.4806   -8467.5976 
  400000    1.1525234    296.86006   -69.134293   -8386.7763 
  500000    1.1525234    299.40422    414.27699    -8447.438 
Loop time of 1272.86 on 12 procs for 250000 steps with 1572 atoms

Performance: 33.939 ns/day, 0.707 hours/ns, 196.408 timesteps/s
93.6% CPU use with 12 MPI tasks x no OpenMP threads

MPI task timing breakdown:
Section |  min time  |  avg time  |  max time  |%varavg| %total
---------------------------------------------------------------
Pair    | 710.98     | 766.21     | 806.33     | 112.2 | 60.20
Bond    | 3.2766     | 3.3675     | 3.4283     |   2.2 |  0.26
Kspace  | 306.48     | 346.63     | 402.24     | 167.3 | 27.23
Neigh   | 40.571     | 40.628     | 40.666     |   0.5 |  3.19
Comm    | 38.542     | 38.928     | 39.211     |   3.0 |  3.06
Output  | 0.10198    | 0.10233    | 0.1026     |   0.1 |  0.01
Modify  | 71.798     | 72.064     | 72.245     |   1.5 |  5.66
Other   |            | 4.929      |            |       |  0.39

Nlocal:    131 ave 141 max 117 min
Histogram: 1 0 1 1 2 0 3 1 1 2
Nghost:    4206.83 ave 4231 max 4151 min
Histogram: 1 0 0 0 2 1 1 1 2 4
Neighs:    47686.5 ave 53413 max 39992 min
Histogram: 1 1 1 1 1 0 2 1 3 1

Total # of neighbors = 572238
Ave neighs/atom = 364.019
Ave special neighs/atom = 1.9084
Neighbor list builds = 19918
Dangerous builds = 0
PPPM initialization ...
  extracting TIP4P info from pair style
  using 12-bit tables for long-range coulomb (../kspace.cpp:321)
  G vector (1/distance) = 0.310397
  grid = 24 24 24
  stencil order = 5
  estimated absolute RMS force accuracy = 0.00365983
  estimated relative force accuracy = 1.10215e-05
  using double precision FFTs
  3d grid and FFT values/proc = 5415 1152
Setting up Verlet run ...
  Unit style    : real
  Current step  : 500000
  Time step     : 2
Per MPI rank memory allocation (min/avg/max) = 14.31 | 14.31 | 14.32 Mbytes
Step Density Temp Press TotEng 
  500000    1.1525234    299.40422     414.3796    -8447.438 
  600000    1.1525234    309.12915   -1008.4752   -8337.0087 
  700000    1.1525234    301.43727   -53.198006    -8383.601 
  750000    1.1525234    287.39004    257.38067    -8508.577 
Loop time of 1273.83 on 12 procs for 250000 steps with 1572 atoms

Performance: 33.913 ns/day, 0.708 hours/ns, 196.258 timesteps/s
93.4% CPU use with 12 MPI tasks x no OpenMP threads

MPI task timing breakdown:
Section |  min time  |  avg time  |  max time  |%varavg| %total
---------------------------------------------------------------
Pair    | 698.23     | 764.36     | 815.81     | 137.5 | 60.00
Bond    | 3.2888     | 3.3502     | 3.4273     |   2.0 |  0.26
Kspace  | 298.24     | 349.72     | 416.18     | 203.8 | 27.45
Neigh   | 40.382     | 40.435     | 40.482     |   0.5 |  3.17
Comm    | 38.618     | 38.95      | 39.22      |   2.9 |  3.06
Output  | 0.067857   | 0.068287   | 0.068984   |   0.1 |  0.01
Modify  | 71.783     | 72.032     | 72.203     |   1.4 |  5.65
Other   |            | 4.92       |            |       |  0.39

Nlocal:    131 ave 145 max 121 min
Histogram: 1 1 3 1 2 1 1 0 1 1
Nghost:    4177.75 ave 4220 max 4127 min
Histogram: 2 0 1 2 0 2 0 1 1 3
Neighs:    47726.3 ave 56553 max 42798 min
Histogram: 2 3 2 1 1 0 1 0 1 1

Total # of neighbors = 572716
Ave neighs/atom = 364.323
Ave special neighs/atom = 1.9084
Neighbor list builds = 19842
Dangerous builds = 0
PPPM initialization ...
  extracting TIP4P info from pair style
  using 12-bit tables for long-range coulomb (../kspace.cpp:321)
  G vector (1/distance) = 0.310397
  grid = 24 24 24
  stencil order = 5
  estimated absolute RMS force accuracy = 0.00365983
  estimated relative force accuracy = 1.10215e-05
  using double precision FFTs
  3d grid and FFT values/proc = 5415 1152
Setting up Verlet run ...
  Unit style    : real
  Current step  : 750000
  Time step     : 2
Per MPI rank memory allocation (min/avg/max) = 14.31 | 14.31 | 14.32 Mbytes
Step Density Temp Press TotEng 
  750000    1.1525234    287.39004    256.97132    -8508.577 
  800000    1.1525234    293.12889    343.60229   -8353.2033 
  900000    1.1525234    293.31828   -1137.1525   -8366.3036 
 1000000    1.1525234    304.32009    19.761744   -8393.2553 
Loop time of 1272.65 on 12 procs for 250000 steps with 1572 atoms

Performance: 33.945 ns/day, 0.707 hours/ns, 196.440 timesteps/s
93.7% CPU use with 12 MPI tasks x no OpenMP threads

MPI task timing breakdown:
Section |  min time  |  avg time  |  max time  |%varavg| %total
---------------------------------------------------------------
Pair    | 720.56     | 768.3      | 806.98     | 112.4 | 60.37
Bond    | 3.3246     | 3.378      | 3.4463     |   1.6 |  0.27
Kspace  | 305.7      | 344.43     | 392.09     | 168.3 | 27.06
Neigh   | 40.428     | 40.475     | 40.51      |   0.4 |  3.18
Comm    | 38.607     | 38.924     | 39.214     |   2.9 |  3.06
Output  | 0.1022     | 0.10266    | 0.10314    |   0.1 |  0.01
Modify  | 71.815     | 72.102     | 72.265     |   1.6 |  5.67
Other   |            | 4.942      |            |       |  0.39

Nlocal:    131 ave 145 max 114 min
Histogram: 1 0 2 0 1 2 2 2 1 1
Nghost:    4224.5 ave 4254 max 4182 min
Histogram: 1 2 2 0 0 0 0 1 1 5
Neighs:    47699.2 ave 53102 max 39765 min
Histogram: 1 0 0 2 3 0 1 1 2 2

Total # of neighbors = 572390
Ave neighs/atom = 364.116
Ave special neighs/atom = 1.9084
Neighbor list builds = 19881
Dangerous builds = 0
PPPM initialization ...
  extracting TIP4P info from pair style
  using 12-bit tables for long-range coulomb (../kspace.cpp:321)
  G vector (1/distance) = 0.310397
  grid = 24 24 24
  stencil order = 5
  estimated absolute RMS force accuracy = 0.00365983
  estimated relative force accuracy = 1.10215e-05
  using double precision FFTs
  3d grid and FFT values/proc = 5415 1152
Setting up Verlet run ...
  Unit style    : real
  Current step  : 1000000
  Time step     : 2
Per MPI rank memory allocation (min/avg/max) = 14.31 | 14.31 | 14.32 Mbytes
Step Density Temp Press TotEng 
 1000000    1.1525234    304.32009    20.084541   -8393.2553 
 1100000    1.1525234    297.89078    357.82976   -8417.4888 
 1200000    1.1525234    297.65725   -55.731925   -8405.3503 
 1250000    1.1525234    298.87568   -483.07564   -8431.4012 
Loop time of 1277.25 on 12 procs for 250000 steps with 1572 atoms

Performance: 33.823 ns/day, 0.710 hours/ns, 195.733 timesteps/s
93.3% CPU use with 12 MPI tasks x no OpenMP threads

MPI task timing breakdown:
Section |  min time  |  avg time  |  max time  |%varavg| %total
---------------------------------------------------------------
Pair    | 711.41     | 764.62     | 827.02     | 127.0 | 59.86
Bond    | 3.3298     | 3.357      | 3.3965     |   1.1 |  0.26
Kspace  | 290.48     | 352.94     | 406.46     | 187.3 | 27.63
Neigh   | 40.423     | 40.475     | 40.513     |   0.4 |  3.17
Comm    | 38.628     | 38.9       | 39.234     |   3.0 |  3.05
Output  | 0.067848   | 0.068249   | 0.068888   |   0.1 |  0.01
Modify  | 71.68      | 71.972     | 72.156     |   1.6 |  5.63
Other   |            | 4.912      |            |       |  0.38

Nlocal:    131 ave 141 max 118 min
Histogram: 1 0 0 2 1 3 1 2 1 1
Nghost:    4217.58 ave 4272 max 4141 min
Histogram: 1 0 0 3 1 2 1 1 1 2
Neighs:    47675.2 ave 54040 max 40466 min
Histogram: 1 0 2 0 2 3 1 0 2 1

Total # of neighbors = 572103
Ave neighs/atom = 363.933
Ave special neighs/atom = 1.9084
Neighbor list builds = 19826
Dangerous builds = 0
PPPM initialization ...
  extracting TIP4P info from pair style
  using 12-bit tables for long-range coulomb (../kspace.cpp:321)
  G vector (1/distance) = 0.310397
  grid = 24 24 24
  stencil order = 5
  estimated absolute RMS force accuracy = 0.00365983
  estimated relative force accuracy = 1.10215e-05
  using double precision FFTs
  3d grid and FFT values/proc = 5415 1152
Setting up Verlet run ...
  Unit style    : real
  Current step  : 1250000
  Time step     : 2
Per MPI rank memory allocation (min/avg/max) = 14.31 | 14.31 | 14.32 Mbytes
Step Density Temp Press TotEng 
 1250000    1.1525234    298.87568   -483.36817   -8431.4012 
 1300000    1.1525234    292.12201    -428.6714   -8398.9821 
 1400000    1.1525234    302.96387    486.25205   -8387.8264 
 1500000    1.1525234    292.72843    53.711751   -8372.7555 
Loop time of 1285.64 on 12 procs for 250000 steps with 1572 atoms

Performance: 33.602 ns/day, 0.714 hours/ns, 194.456 timesteps/s
93.1% CPU use with 12 MPI tasks x no OpenMP threads

MPI task timing breakdown:
Section |  min time  |  avg time  |  max time  |%varavg| %total
---------------------------------------------------------------
Pair    | 690.89     | 765.68     | 820.04     | 151.8 | 59.56
Bond    | 3.2761     | 3.3431     | 3.4008     |   1.9 |  0.26
Kspace  | 305.46     | 359.89     | 434.98     | 222.0 | 27.99
Neigh   | 40.63      | 40.69      | 40.743     |   0.5 |  3.16
Comm    | 38.641     | 38.979     | 39.249     |   3.0 |  3.03
Output  | 0.10151    | 0.10179    | 0.10233    |   0.1 |  0.01
Modify  | 71.768     | 72.039     | 72.219     |   1.6 |  5.60
Other   |            | 4.914      |            |       |  0.38

Nlocal:    131 ave 144 max 120 min
Histogram: 2 3 0 1 1 0 0 2 2 1
Nghost:    4215.33 ave 4273 max 4175 min
Histogram: 2 1 2 2 1 2 0 0 0 2
Neighs:    47752.2 ave 53758 max 41209 min
Histogram: 2 1 2 0 1 1 0 0 1 4

Total # of neighbors = 573027
Ave neighs/atom = 364.521
Ave special neighs/atom = 1.9084
Neighbor list builds = 19853
Dangerous builds = 0
PPPM initialization ...
  extracting TIP4P info from pair style
  using 12-bit tables for long-range coulomb (../kspace.cpp:321)
  G vector (1/distance) = 0.310397
  grid = 24 24 24
  stencil order = 5
  estimated absolute RMS force accuracy = 0.00365983
  estimated relative force accuracy = 1.10215e-05
  using double precision FFTs
  3d grid and FFT values/proc = 5415 1152
Setting up Verlet run ...
  Unit style    : real
  Current step  : 1500000
  Time step     : 2
Per MPI rank memory allocation (min/avg/max) = 14.31 | 14.31 | 14.32 Mbytes
Step Density Temp Press TotEng 
 1500000    1.1525234    292.72843    54.232083   -8372.7555 
 1600000    1.1525234    276.49337    -667.9294   -8412.9421 
 1700000    1.1525234    303.89651    93.830813   -8300.2776 
 1750000    1.1525234    302.44369    -1084.384   -8412.9424 
Loop time of 1285.8 on 12 procs for 250000 steps with 1572 atoms

Performance: 33.598 ns/day, 0.714 hours/ns, 194.431 timesteps/s
93.1% CPU use with 12 MPI tasks x no OpenMP threads

MPI task timing breakdown:
Section |  min time  |  avg time  |  max time  |%varavg| %total
---------------------------------------------------------------
Pair    | 702.28     | 766.11     | 836.77     | 151.0 | 59.58
Bond    | 3.2746     | 3.3481     | 3.3845     |   1.7 |  0.26
Kspace  | 288.98     | 359.7      | 423.81     | 221.0 | 27.98
Neigh   | 40.641     | 40.695     | 40.738     |   0.4 |  3.16
Comm    | 38.603     | 38.94      | 39.215     |   3.0 |  3.03
Output  | 0.068018   | 0.068445   | 0.068896   |   0.1 |  0.01
Modify  | 71.762     | 72.031     | 72.219     |   1.6 |  5.60
Other   |            | 4.901      |            |       |  0.38

Nlocal:    131 ave 146 max 120 min
Histogram: 2 2 0 2 2 0 3 0 0 1
Nghost:    4225.17 ave 4298 max 4150 min
Histogram: 1 1 1 3 0 1 1 2 1 1
Neighs:    47694.3 ave 55742 max 42494 min
Histogram: 1 2 1 4 1 1 1 0 0 1

Total # of neighbors = 572332
Ave neighs/atom = 364.079
Ave special neighs/atom = 1.9084
Neighbor list builds = 19861
Dangerous builds = 0
PPPM initialization ...
  extracting TIP4P info from pair style
  using 12-bit tables for long-range coulomb (../kspace.cpp:321)
  G vector (1/distance) = 0.310397
  grid = 24 24 24
  stencil order = 5
  estimated absolute RMS force accuracy = 0.00365983
  estimated relative force accuracy = 1.10215e-05
  using double precision FFTs
  3d grid and FFT values/proc = 5415 1152
Setting up Verlet run ...
  Unit style    : real
  Current step  : 1750000
  Time step     : 2
Per MPI rank memory allocation (min/avg/max) = 14.31 | 14.31 | 14.32 Mbytes
Step Density Temp Press TotEng 
 1750000    1.1525234    302.44369   -1084.3228   -8412.9424 
 1800000    1.1525234    291.23222   -724.57504    -8324.607 
 1900000    1.1525234    295.35513   -80.950465   -8432.3076 
 2000000    1.1525234     304.6078   -240.15501   -8374.7406 
Loop time of 1276.42 on 12 procs for 250000 steps with 1572 atoms

Performance: 33.845 ns/day, 0.709 hours/ns, 195.861 timesteps/s
93.3% CPU use with 12 MPI tasks x no OpenMP threads

MPI task timing breakdown:
Section |  min time  |  avg time  |  max time  |%varavg| %total
---------------------------------------------------------------
Pair    | 704.95     | 763.42     | 813.47     | 134.0 | 59.81
Bond    | 3.2995     | 3.3581     | 3.3998     |   2.0 |  0.26
Kspace  | 302.88     | 353.07     | 411.84     | 197.5 | 27.66
Neigh   | 40.513     | 40.571     | 40.612     |   0.5 |  3.18
Comm    | 38.581     | 38.903     | 39.205     |   3.1 |  3.05
Output  | 0.10175    | 0.10211    | 0.10245    |   0.1 |  0.01
Modify  | 71.785     | 72.08      | 72.259     |   1.6 |  5.65
Other   |            | 4.912      |            |       |  0.38

Nlocal:    131 ave 146 max 123 min
Histogram: 3 0 2 3 2 1 0 0 0 1
Nghost:    4216.5 ave 4313 max 4155 min
Histogram: 3 1 1 1 2 1 1 1 0 1
Neighs:    47695.1 ave 56231 max 41210 min
Histogram: 1 2 2 0 2 2 2 0 0 1

Total # of neighbors = 572341
Ave neighs/atom = 364.085
Ave special neighs/atom = 1.9084
Neighbor list builds = 19871
Dangerous builds = 0
PPPM initialization ...
  extracting TIP4P info from pair style
  using 12-bit tables for long-range coulomb (../kspace.cpp:321)
  G vector (1/distance) = 0.310397
  grid = 24 24 24
  stencil order = 5
  estimated absolute RMS force accuracy = 0.00365983
  estimated relative force accuracy = 1.10215e-05
  using double precision FFTs
  3d grid and FFT values/proc = 5415 1152
Setting up Verlet run ...
  Unit style    : real
  Current step  : 2000000
  Time step     : 2
Per MPI rank memory allocation (min/avg/max) = 14.31 | 14.31 | 14.32 Mbytes
Step Density Temp Press TotEng 
 2000000    1.1525234     304.6078   -239.30474   -8374.7406 
 2100000    1.1525234    297.30043    412.42075   -8360.6396 
 2200000    1.1525234    295.10869   -91.631226   -8443.8081 
 2300000    1.1525234    292.44809   -636.58956   -8384.4836 
 2400000    1.1525234    307.82104   -610.97109   -8360.1762 
 2500000    1.1525234    290.29356   -119.32198   -8431.2789 
 2600000    1.1525234    297.39936      1561.19   -8373.9675 
 2700000    1.1525234    287.57981    1176.0107   -8406.3389 
 2800000    1.1525234    298.93541   -813.53557   -8406.5896 
 2900000    1.1525234    300.21225    277.07699   -8423.3195 
 3000000    1.1525234    303.51869   -485.70069   -8465.8192 
Loop time of 5112.96 on 12 procs for 1000000 steps with 1572 atoms

Performance: 33.796 ns/day, 0.710 hours/ns, 195.581 timesteps/s
93.4% CPU use with 12 MPI tasks x no OpenMP threads

MPI task timing breakdown:
Section |  min time  |  avg time  |  max time  |%varavg| %total
---------------------------------------------------------------
Pair    | 2815.1     | 3066.7     | 3220.2     | 254.4 | 59.98
Bond    | 13.148     | 13.437     | 13.721     |   3.9 |  0.26
Kspace  | 1253.1     | 1406.9     | 1659.6     | 376.7 | 27.52
Neigh   | 162.02     | 162.2      | 162.35     |   0.8 |  3.17
Comm    | 154.29     | 155.58     | 156.76     |   5.9 |  3.04
Output  | 0.3379     | 0.33866    | 0.34039    |   0.1 |  0.01
Modify  | 287.12     | 288.21     | 288.9      |   3.1 |  5.64
Other   |            | 19.69      |            |       |  0.39

Nlocal:    131 ave 145 max 112 min
Histogram: 1 0 0 0 1 4 4 1 0 1
Nghost:    4183.83 ave 4237 max 4138 min
Histogram: 2 0 2 2 1 0 3 0 0 2
Neighs:    47723.2 ave 56271 max 39158 min
Histogram: 1 0 1 1 2 5 1 0 0 1

Total # of neighbors = 572678
Ave neighs/atom = 364.299
Ave special neighs/atom = 1.9084
Neighbor list builds = 79414
Dangerous builds = 0
PPPM initialization ...
  extracting TIP4P info from pair style
  using 12-bit tables for long-range coulomb (../kspace.cpp:321)
  G vector (1/distance) = 0.310397
  grid = 24 24 24
  stencil order = 5
  estimated absolute RMS force accuracy = 0.00365983
  estimated relative force accuracy = 1.10215e-05
  using double precision FFTs
  3d grid and FFT values/proc = 5415 1152
Setting up Verlet run ...
  Unit style    : real
  Current step  : 3000000
  Time step     : 2
Per MPI rank memory allocation (min/avg/max) = 14.31 | 14.31 | 14.32 Mbytes
Step Density Temp Press TotEng 
 3000000    1.1525234    303.51869   -485.78008   -8465.8192 
 3100000    1.1525234    303.75952   -330.64689   -8360.5115 
 3200000    1.1525234    300.72509    322.12282   -8357.0421 
 3300000    1.1525234     302.4293    471.47665   -8428.0177 
 3400000    1.1525234    296.91627    -594.6255   -8426.0686 
 3500000    1.1525234    297.93571    -168.4561   -8376.1665 
 3600000    1.1525234    297.89846     392.0447    -8360.764 
 3700000    1.1525234    301.04191     490.9273   -8367.5398 
 3800000    1.1525234    301.05106   -597.87311    -8354.016 
 3900000    1.1525234    308.10931    127.62363   -8400.6023 
 4000000    1.1525234    311.39608    32.819258   -8319.6057 
Loop time of 5109.21 on 12 procs for 1000000 steps with 1572 atoms

Performance: 33.821 ns/day, 0.710 hours/ns, 195.725 timesteps/s
93.4% CPU use with 12 MPI tasks x no OpenMP threads

MPI task timing breakdown:
Section |  min time  |  avg time  |  max time  |%varavg| %total
---------------------------------------------------------------
Pair    | 2763.7     | 3059       | 3254.9     | 273.2 | 59.87
Bond    | 13.242     | 13.425     | 13.696     |   3.7 |  0.26
Kspace  | 1214.5     | 1410.5     | 1707.1     | 403.4 | 27.61
Neigh   | 161.98     | 162.19     | 162.36     |   0.9 |  3.17
Comm    | 154.31     | 155.67     | 156.85     |   6.0 |  3.05
Output  | 0.33911    | 0.33995    | 0.34136    |   0.1 |  0.01
Modify  | 287.38     | 288.44     | 289.12     |   3.1 |  5.65
Other   |            | 19.65      |            |       |  0.38

Nlocal:    131 ave 136 max 123 min
Histogram: 1 0 0 2 1 1 1 2 3 1
Nghost:    4183.92 ave 4213 max 4139 min
Histogram: 1 0 0 1 2 0 4 1 1 2
Neighs:    47709.7 ave 51466 max 42893 min
Histogram: 2 1 0 1 0 0 2 4 0 2

Total # of neighbors = 572516
Ave neighs/atom = 364.196
Ave special neighs/atom = 1.9084
Neighbor list builds = 79396
Dangerous builds = 0
PPPM initialization ...
  extracting TIP4P info from pair style
  using 12-bit tables for long-range coulomb (../kspace.cpp:321)
  G vector (1/distance) = 0.310397
  grid = 24 24 24
  stencil order = 5
  estimated absolute RMS force accuracy = 0.00365983
  estimated relative force accuracy = 1.10215e-05
  using double precision FFTs
  3d grid and FFT values/proc = 5415 1152
Setting up Verlet run ...
  Unit style    : real
  Current step  : 4000000
  Time step     : 2
Per MPI rank memory allocation (min/avg/max) = 14.31 | 14.31 | 14.32 Mbytes
Step Density Temp Press TotEng 
 4000000    1.1525234    311.39608    31.783116   -8319.6057 
 4100000    1.1525234    299.18655    -538.7835   -8384.8867 
 4200000    1.1525234    301.95593   -392.93254   -8392.0804 
 4300000    1.1525234    291.16754    1275.6853   -8394.0758 
 4400000    1.1525234    319.53388    16.003259   -8312.6043 
 4500000    1.1525234    293.99983   -56.998192   -8393.8033 
 4600000    1.1525234    300.81863     564.8294   -8377.6605 
 4700000    1.1525234    284.15318   -984.33945   -8481.0468 
 4800000    1.1525234    310.53992    260.84011   -8331.7427 
 4900000    1.1525234    303.01121   -295.81667   -8401.2551 
 5000000    1.1525234    300.35959     6.184924   -8386.9467 
Loop time of 5121.33 on 12 procs for 1000000 steps with 1572 atoms

Performance: 33.741 ns/day, 0.711 hours/ns, 195.262 timesteps/s
93.2% CPU use with 12 MPI tasks x no OpenMP threads

MPI task timing breakdown:
Section |  min time  |  avg time  |  max time  |%varavg| %total
---------------------------------------------------------------
Pair    | 2847.9     | 3059.5     | 3278.8     | 272.9 | 59.74
Bond    | 13.137     | 13.399     | 13.548     |   3.0 |  0.26
Kspace  | 1202.4     | 1421.9     | 1633.5     | 401.3 | 27.76
Neigh   | 162.47     | 162.65     | 162.77     |   0.7 |  3.18
Comm    | 154.47     | 155.62     | 156.73     |   6.0 |  3.04
Output  | 0.33859    | 0.33928    | 0.34041    |   0.1 |  0.01
Modify  | 287.25     | 288.35     | 289.13     |   3.2 |  5.63
Other   |            | 19.62      |            |       |  0.38

Nlocal:    131 ave 144 max 123 min
Histogram: 3 0 3 2 1 1 0 0 0 2
Nghost:    4217.08 ave 4280 max 4165 min
Histogram: 2 1 0 3 1 2 1 0 0 2
Neighs:    47716.4 ave 54176 max 41277 min
Histogram: 1 2 0 1 2 2 1 0 2 1

Total # of neighbors = 572597
Ave neighs/atom = 364.247
Ave special neighs/atom = 1.9084
Neighbor list builds = 79466
Dangerous builds = 0
PPPM initialization ...
  extracting TIP4P info from pair style
  using 12-bit tables for long-range coulomb (../kspace.cpp:321)
  G vector (1/distance) = 0.310397
  grid = 24 24 24
  stencil order = 5
  estimated absolute RMS force accuracy = 0.00365983
  estimated relative force accuracy = 1.10215e-05
  using double precision FFTs
  3d grid and FFT values/proc = 5415 1152
Setting up Verlet run ...
  Unit style    : real
  Current step  : 5000000
  Time step     : 2
Per MPI rank memory allocation (min/avg/max) = 14.31 | 14.31 | 14.32 Mbytes
Step Density Temp Press TotEng 
 5000000    1.1525234    300.35959    6.5971318   -8386.9467 
 5100000    1.1525234    295.98977   -608.54045   -8431.1723 
 5200000    1.1525234    298.25869    327.06625    -8401.656 
 5300000    1.1525234    296.34949    555.96663   -8459.7895 
 5400000    1.1525234    300.95815    669.98035   -8397.6227 
 5500000    1.1525234    291.99306   -132.70795   -8430.6029 
 5600000    1.1525234    292.71312   -1278.9446    -8457.206 
 5700000    1.1525234    282.93457   -239.62862   -8513.0539 
 5800000    1.1525234     306.7786   -637.49817   -8299.3516 
 5900000    1.1525234    303.56748    369.98704   -8375.7091 
 6000000    1.1525234    296.58594    -1373.415   -8407.0451 
Loop time of 5097.99 on 12 procs for 1000000 steps with 1572 atoms

Performance: 33.896 ns/day, 0.708 hours/ns, 196.156 timesteps/s
93.5% CPU use with 12 MPI tasks x no OpenMP threads

MPI task timing breakdown:
Section |  min time  |  avg time  |  max time  |%varavg| %total
---------------------------------------------------------------
Pair    | 2810       | 3053.7     | 3231.4     | 283.2 | 59.90
Bond    | 13.145     | 13.424     | 13.64      |   3.8 |  0.26
Kspace  | 1226.5     | 1404.5     | 1648.3     | 418.6 | 27.55
Neigh   | 162.04     | 162.25     | 162.4      |   0.9 |  3.18
Comm    | 154.54     | 155.75     | 156.72     |   5.5 |  3.06
Output  | 0.34098    | 0.34183    | 0.34353    |   0.1 |  0.01
Modify  | 287.37     | 288.39     | 289.08     |   3.0 |  5.66
Other   |            | 19.63      |            |       |  0.39

Nlocal:    131 ave 141 max 120 min
Histogram: 1 1 1 2 0 1 2 3 0 1
Nghost:    4216.83 ave 4238 max 4183 min
Histogram: 2 1 1 0 0 0 0 2 2 4
Neighs:    47691 ave 54286 max 39476 min
Histogram: 1 0 1 1 2 0 3 3 0 1

Total # of neighbors = 572292
Ave neighs/atom = 364.053
Ave special neighs/atom = 1.9084
Neighbor list builds = 79471
Dangerous builds = 0
