LAMMPS (16 Mar 2018)
Reading data file ...
  orthogonal box = (0 0 0) to (25.8482 25.8482 25.8482)
  2 by 2 by 3 MPI processor grid
  reading atoms ...
  1572 atoms
  scanning bonds ...
  2 = max bonds/atom
  scanning angles ...
  1 = max angles/atom
  reading bonds ...
  1000 bonds
  reading angles ...
  500 angles
Finding 1-2 1-3 1-4 neighbors ...
  special bond factors lj:   0          0          0         
  special bond factors coul: 0          0          0         
  2 = max # of 1-2 neighbors
  1 = max # of 1-3 neighbors
  1 = max # of 1-4 neighbors
  2 = max # of special neighbors
Setting atom values ...
  500 settings made for charge
Setting atom values ...
  1000 settings made for charge
Setting atom values ...
  36 settings made for charge
Setting atom values ...
  36 settings made for charge
500 atoms in group wat
36 atoms in group K
36 atoms in group Cl
Finding SHAKE clusters ...
  0 = # of size 2 clusters
  0 = # of size 3 clusters
  0 = # of size 4 clusters
  500 = # of frozen angles
PPPM initialization ...
  extracting TIP4P info from pair style
  using 12-bit tables for long-range coulomb (../kspace.cpp:321)
  G vector (1/distance) = 0.309797
  grid = 24 24 24
  stencil order = 5
  estimated absolute RMS force accuracy = 0.00375155
  estimated relative force accuracy = 1.12977e-05
  using double precision FFTs
  3d grid and FFT values/proc = 5415 1152
Neighbor list info ...
  update every 1 steps, delay 0 steps, check yes
  max neighbors/atom: 2000, page size: 100000
  master list distance cutoff = 12.3092
  ghost atom cutoff = 12.3092
  binsize = 6.1546, bins = 5 5 5
  1 neighbor lists, perpetual/occasional/extra = 1 0 0
  (1) pair lj/cut/tip4p/long, perpetual
      attributes: half, newton on
      pair build: half/bin/newton
      stencil: half/bin/3d/newton
      bin: standard
Setting up Verlet run ...
  Unit style    : real
  Current step  : 0
  Time step     : 0.001
Per MPI rank memory allocation (min/avg/max) = 8.286 | 8.289 | 8.293 Mbytes
Step Density Temp Press TotEng 
       0    1.1241608    437.34234    1384371.2    2311.9202 
   10000    1.0215929    1123.9918     14790.71    374.71777 
Loop time of 39.5723 on 12 procs for 10000 steps with 1572 atoms

Performance: 0.022 ns/day, 1099.231 hours/ns, 252.702 timesteps/s
93.0% CPU use with 12 MPI tasks x no OpenMP threads

MPI task timing breakdown:
Section |  min time  |  avg time  |  max time  |%varavg| %total
---------------------------------------------------------------
Pair    | 21.441     | 23.275     | 26.125     |  29.9 | 58.82
Bond    | 0.0056884  | 0.0065359  | 0.0079654  |   0.8 |  0.02
Kspace  | 7.1352     | 10.023     | 11.832     |  45.7 | 25.33
Neigh   | 0.0017593  | 0.0017706  | 0.0017861  |   0.0 |  0.00
Comm    | 1.2596     | 1.2959     | 1.3546     |   2.7 |  3.27
Output  | 6.0067e-05 | 7.8184e-05 | 0.00026554 |   0.0 |  0.00
Modify  | 4.5358     | 4.7353     | 4.8004     |   2.9 | 11.97
Other   |            | 0.2345     |            |       |  0.59

Nlocal:    131 ave 139 max 123 min
Histogram: 1 2 1 1 1 1 1 0 3 1
Nghost:    4114.5 ave 4174 max 4022 min
Histogram: 1 3 0 0 0 0 0 3 3 2
Neighs:    43938.9 ave 47964 max 40429 min
Histogram: 3 0 0 2 2 1 1 1 0 2

Total # of neighbors = 527267
Ave neighs/atom = 335.412
Ave special neighs/atom = 1.9084
Neighbor list builds = 1
Dangerous builds = 0
PPPM initialization ...
  extracting TIP4P info from pair style
  using 12-bit tables for long-range coulomb (../kspace.cpp:321)
  G vector (1/distance) = 0.310439
  grid = 25 25 25
  stencil order = 5
  estimated absolute RMS force accuracy = 0.00343625
  estimated relative force accuracy = 1.03482e-05
  using double precision FFTs
  3d grid and FFT values/proc = 6400 1875
Setting up Verlet run ...
  Unit style    : real
  Current step  : 10000
  Time step     : 0.01
Per MPI rank memory allocation (min/avg/max) = 8.324 | 8.349 | 8.395 Mbytes
Step Density Temp Press TotEng 
   10000    1.0215929    1123.9918    1448049.5    374.71038 
   20000    1.1593703    293.31118    -1178.987   -7305.2117 
Loop time of 42.4384 on 12 procs for 10000 steps with 1572 atoms

Performance: 0.204 ns/day, 117.885 hours/ns, 235.635 timesteps/s
90.5% CPU use with 12 MPI tasks x no OpenMP threads

MPI task timing breakdown:
Section |  min time  |  avg time  |  max time  |%varavg| %total
---------------------------------------------------------------
Pair    | 20.639     | 22.612     | 25.933     |  28.6 | 53.28
Bond    | 0.0060037  | 0.0065897  | 0.0082827  |   0.8 |  0.02
Kspace  | 8.2495     | 11.588     | 13.55      |  40.1 | 27.31
Neigh   | 0.018126   | 0.018213   | 0.018273   |   0.0 |  0.04
Comm    | 1.2332     | 1.2606     | 1.3026     |   1.7 |  2.97
Output  | 6.1318e-05 | 7.5077e-05 | 0.00021349 |   0.0 |  0.00
Modify  | 4.7099     | 5.1508     | 6.8058     |  22.3 | 12.14
Other   |            | 1.803      |            |       |  4.25

Nlocal:    131 ave 146 max 124 min
Histogram: 2 2 4 1 0 2 0 0 0 1
Nghost:    4294.25 ave 4383 max 4205 min
Histogram: 1 2 1 0 1 2 2 1 1 1
Neighs:    47885.8 ave 55251 max 43117 min
Histogram: 1 2 2 2 2 1 1 0 0 1

Total # of neighbors = 574629
Ave neighs/atom = 365.54
Ave special neighs/atom = 1.9084
Neighbor list builds = 10
Dangerous builds = 0
PPPM initialization ...
  extracting TIP4P info from pair style
  using 12-bit tables for long-range coulomb (../kspace.cpp:321)
  G vector (1/distance) = 0.310539
  grid = 24 24 24
  stencil order = 5
  estimated absolute RMS force accuracy = 0.00363837
  estimated relative force accuracy = 1.09568e-05
  using double precision FFTs
  3d grid and FFT values/proc = 5415 1152
Setting up Verlet run ...
  Unit style    : real
  Current step  : 20000
  Time step     : 0.1
Per MPI rank memory allocation (min/avg/max) = 8.286 | 8.321 | 8.662 Mbytes
Step Density Temp Press TotEng 
   20000    1.1593703    293.31118   -25940.342    -7305.224 
   30000    1.1734486    291.79321    39.809233   -8390.7046 
Loop time of 43.1358 on 12 procs for 10000 steps with 1572 atoms

Performance: 2.003 ns/day, 11.982 hours/ns, 231.826 timesteps/s
94.1% CPU use with 12 MPI tasks x no OpenMP threads

MPI task timing breakdown:
Section |  min time  |  avg time  |  max time  |%varavg| %total
---------------------------------------------------------------
Pair    | 23.231     | 26.437     | 28.876     |  29.9 | 61.29
Bond    | 0.0059264  | 0.0067662  | 0.0093244  |   1.1 |  0.02
Kspace  | 7.8138     | 10.259     | 13.461     |  48.0 | 23.78
Neigh   | 0.08874    | 0.088905   | 0.089122   |   0.0 |  0.21
Comm    | 1.2974     | 1.3197     | 1.3441     |   1.3 |  3.06
Output  | 6.7651e-05 | 8.0623e-05 | 0.00021718 |   0.0 |  0.00
Modify  | 4.5913     | 4.7914     | 4.8541     |   2.9 | 11.11
Other   |            | 0.2331     |            |       |  0.54

Nlocal:    131 ave 138 max 125 min
Histogram: 2 0 1 2 0 3 3 0 0 1
Nghost:    4279.17 ave 4312 max 4250 min
Histogram: 3 1 0 2 2 0 0 0 0 4
Neighs:    48859.2 ave 53422 max 43609 min
Histogram: 1 1 0 2 1 2 1 1 2 1

Total # of neighbors = 586311
Ave neighs/atom = 372.971
Ave special neighs/atom = 1.9084
Neighbor list builds = 45
Dangerous builds = 0
PPPM initialization ...
  extracting TIP4P info from pair style
  using 12-bit tables for long-range coulomb (../kspace.cpp:321)
  G vector (1/distance) = 0.310829
  grid = 24 24 24
  stencil order = 5
  estimated absolute RMS force accuracy = 0.00359503
  estimated relative force accuracy = 1.08263e-05
  using double precision FFTs
  3d grid and FFT values/proc = 5415 1152
Setting up Verlet run ...
  Unit style    : real
  Current step  : 30000
  Time step     : 0.2
Per MPI rank memory allocation (min/avg/max) = 8.287 | 8.353 | 8.663 Mbytes
Step Density Temp Press TotEng 
   30000    1.1734486    291.79321    8927.6132   -8390.7043 
   40000    1.1584981    296.88579   -677.67563   -8401.7024 
Loop time of 43.6702 on 12 procs for 10000 steps with 1572 atoms

Performance: 3.957 ns/day, 6.065 hours/ns, 228.989 timesteps/s
93.6% CPU use with 12 MPI tasks x no OpenMP threads

MPI task timing breakdown:
Section |  min time  |  avg time  |  max time  |%varavg| %total
---------------------------------------------------------------
Pair    | 22.799     | 26.243     | 29.628     |  41.8 | 60.09
Bond    | 0.0059601  | 0.0067128  | 0.0079358  |   0.7 |  0.02
Kspace  | 7.4889     | 10.88      | 14.335     |  64.9 | 24.91
Neigh   | 0.1805     | 0.18075    | 0.18096    |   0.0 |  0.41
Comm    | 1.3089     | 1.3361     | 1.3594     |   1.4 |  3.06
Output  | 6.0469e-05 | 7.5292e-05 | 0.00021888 |   0.0 |  0.00
Modify  | 4.586      | 4.7909     | 4.8517     |   2.9 | 10.97
Other   |            | 0.233      |            |       |  0.53

Nlocal:    131 ave 147 max 122 min
Histogram: 3 1 1 0 4 2 0 0 0 1
Nghost:    4226.17 ave 4304 max 4145 min
Histogram: 1 1 2 0 1 2 3 0 0 2
Neighs:    47874.1 ave 53514 max 43233 min
Histogram: 2 2 2 1 0 0 0 2 1 2

Total # of neighbors = 574489
Ave neighs/atom = 365.451
Ave special neighs/atom = 1.9084
Neighbor list builds = 89
Dangerous builds = 0
PPPM initialization ...
  extracting TIP4P info from pair style
  using 12-bit tables for long-range coulomb (../kspace.cpp:321)
  G vector (1/distance) = 0.310521
  grid = 24 24 24
  stencil order = 5
  estimated absolute RMS force accuracy = 0.00364109
  estimated relative force accuracy = 1.0965e-05
  using double precision FFTs
  3d grid and FFT values/proc = 5415 1152
Setting up Verlet run ...
  Unit style    : real
  Current step  : 40000
  Time step     : 0.5
Per MPI rank memory allocation (min/avg/max) = 8.287 | 8.435 | 8.665 Mbytes
Step Density Temp Press TotEng 
   40000    1.1584981    296.88579   -2502.4383   -8401.7024 
   50000    1.1585845    302.05995    298.02127   -8450.0385 
Loop time of 43.8684 on 12 procs for 10000 steps with 1572 atoms

Performance: 9.848 ns/day, 2.437 hours/ns, 227.955 timesteps/s
93.9% CPU use with 12 MPI tasks x no OpenMP threads

MPI task timing breakdown:
Section |  min time  |  avg time  |  max time  |%varavg| %total
---------------------------------------------------------------
Pair    | 23.652     | 26.417     | 28.787     |  33.1 | 60.22
Bond    | 0.0059751  | 0.00672    | 0.0081959  |   0.8 |  0.02
Kspace  | 8.2084     | 10.58      | 13.339     |  52.3 | 24.12
Neigh   | 0.45052    | 0.45133    | 0.45431    |   0.1 |  1.03
Comm    | 1.3539     | 1.3775     | 1.4085     |   1.5 |  3.14
Output  | 5.956e-05  | 7.2503e-05 | 0.00020467 |   0.0 |  0.00
Modify  | 4.5993     | 4.8023     | 4.8651     |   2.9 | 10.95
Other   |            | 0.2337     |            |       |  0.53

Nlocal:    131 ave 138 max 127 min
Histogram: 4 1 1 1 0 1 3 0 0 1
Nghost:    4239.08 ave 4280 max 4210 min
Histogram: 2 0 1 1 5 1 1 0 0 1
Neighs:    47867.2 ave 51996 max 42963 min
Histogram: 2 0 1 2 1 1 0 0 3 2

Total # of neighbors = 574407
Ave neighs/atom = 365.399
Ave special neighs/atom = 1.9084
Neighbor list builds = 222
Dangerous builds = 0
PPPM initialization ...
  extracting TIP4P info from pair style
  using 12-bit tables for long-range coulomb (../kspace.cpp:321)
  G vector (1/distance) = 0.310523
  grid = 24 24 24
  stencil order = 5
  estimated absolute RMS force accuracy = 0.00364082
  estimated relative force accuracy = 1.09642e-05
  using double precision FFTs
  3d grid and FFT values/proc = 5415 1152
Setting up Verlet run ...
  Unit style    : real
  Current step  : 0
  Time step     : 1
Per MPI rank memory allocation (min/avg/max) = 8.287 | 8.477 | 8.665 Mbytes
Step Density Temp Press TotEng 
       0    1.1585845    302.05995    234.00731   -8450.0385 
  100000    1.1369315    303.00611   -672.82583   -8420.1675 
  200000    1.1558988    299.87081     428.1181   -8415.5731 
  300000    1.1620556    314.48485    978.24139   -8354.8867 
  400000    1.1568031    292.07743   -952.06091   -8430.8681 
  500000    1.1528909     293.8283   -34.006206   -8443.2499 
  600000    1.1446292    298.88952   -219.47281   -8395.0584 
  700000    1.1355215    310.64637   -114.82666   -8332.9071 
  800000    1.1597403     302.4116    781.51706   -8320.7298 
  900000    1.1579085    293.95848    -507.3943   -8387.0651 
 1000000    1.1329018    302.68837   -933.98673   -8422.9772 
 1100000    1.1539774    291.08506   -582.38071   -8440.2918 
 1200000    1.1440977    298.66056    618.50299   -8350.9916 
 1300000    1.1532039    279.73448     785.8592   -8463.4355 
 1400000    1.1395915    297.90378   -431.78178   -8392.6433 
 1500000    1.1450705    289.28074    170.42343   -8429.5607 
 1600000    1.1609885     295.6222   -849.60771   -8393.8463 
 1700000    1.1551174    304.91478    385.43901    -8416.555 
 1800000    1.1469512    294.21406   -891.60161   -8416.3942 
 1900000    1.1657637    295.63868    651.50235   -8429.9288 
 2000000    1.1472781    279.36828    -569.3688   -8478.8888 
 2100000    1.1537852    302.67542    571.67851   -8310.0409 
 2200000    1.1349683    287.64851   -358.22411   -8402.7789 
 2300000    1.1509264    310.16152    147.62416   -8377.2474 
 2400000    1.1510499    302.66795    539.99761   -8353.1517 
 2500000    1.1502192    307.49118   -60.718561   -8453.5224 
 2600000    1.1256778    295.44577   -1235.7002   -8381.7194 
 2700000     1.145644    295.95643   -494.17991   -8424.1267 
 2800000    1.1619946    286.29026    507.92209    -8433.355 
 2900000    1.1580188    297.88727    771.14375   -8380.8956 
 3000000    1.1436702    307.50894   -1259.5727   -8295.5122 
 3100000    1.1449073    300.88662   -917.73843    -8418.512 
 3200000    1.1542492    301.11142   -71.839039   -8335.1148 
 3300000    1.1425098    302.73458   -1419.5401   -8388.2404 
 3400000    1.1424584    300.53821   -95.122081   -8367.1325 
 3500000    1.1445761    307.68424   -24.169718   -8385.6964 
 3600000      1.16105    299.97355    530.80974   -8401.1563 
 3700000     1.159349    300.30972    291.05393   -8379.4626 
 3800000    1.1405098    309.80908   -657.32294   -8400.6651 
 3900000    1.1669973    310.36436    434.64067   -8363.7503 
 4000000    1.1726671    293.51232    54.533699   -8472.2607 
 4100000    1.1389205    305.02079   -906.46628   -8357.9914 
 4200000    1.1505266    290.72192     201.2944   -8450.0969 
 4300000    1.1494119    314.81458   -41.400487   -8369.7158 
 4400000    1.1325368    301.33969   -210.43929   -8364.4111 
 4500000    1.1423607    293.73615   -1053.5508   -8409.0625 
 4600000     1.151466     305.2412    489.18407   -8414.9131 
 4700000    1.1646775    303.77875    1234.2984   -8406.0751 
 4800000    1.1490181    302.92294   -1361.2591   -8447.2459 
 4900000    1.1395739    300.14127   -1009.0198    -8390.991 
 5000000    1.1448818    298.92448   -129.19656   -8399.7222 
Loop time of 22236.7 on 12 procs for 5000000 steps with 1572 atoms

Performance: 19.427 ns/day, 1.235 hours/ns, 224.853 timesteps/s
93.7% CPU use with 12 MPI tasks x no OpenMP threads

MPI task timing breakdown:
Section |  min time  |  avg time  |  max time  |%varavg| %total
---------------------------------------------------------------
Pair    | 12364      | 13265      | 14040      | 551.9 | 59.65
Bond    | 2.9486     | 3.3496     | 4.112      |  17.0 |  0.02
Kspace  | 4535.6     | 5317.6     | 6224.5     | 873.4 | 23.91
Neigh   | 414        | 414.19     | 414.54     |   0.7 |  1.86
Comm    | 699.72     | 708.35     | 718.63     |  25.7 |  3.19
Output  | 0.003059   | 0.0037216  | 0.010694   |   3.4 |  0.00
Modify  | 2306.5     | 2411.1     | 2443.1     |  67.2 | 10.84
Other   |            | 117        |            |       |  0.53

Nlocal:    131 ave 138 max 123 min
Histogram: 1 2 1 0 1 0 1 2 3 1
Nghost:    4157 ave 4222 max 4099 min
Histogram: 2 1 0 2 2 1 1 0 2 1
Neighs:    47371.1 ave 54601 max 42214 min
Histogram: 2 1 3 1 1 0 0 2 1 1

Total # of neighbors = 568453
Ave neighs/atom = 361.611
Ave special neighs/atom = 1.9084
Neighbor list builds = 203555
Dangerous builds = 0
PPPM initialization ...
  extracting TIP4P info from pair style
  using 12-bit tables for long-range coulomb (../kspace.cpp:321)
  G vector (1/distance) = 0.310237
  grid = 24 24 24
  stencil order = 5
  estimated absolute RMS force accuracy = 0.00368409
  estimated relative force accuracy = 1.10945e-05
  using double precision FFTs
  3d grid and FFT values/proc = 5415 1152
Setting up Verlet run ...
  Unit style    : real
  Current step  : 0
  Time step     : 1
Per MPI rank memory allocation (min/avg/max) = 8.659 | 8.663 | 8.666 Mbytes
Step Density Temp Press TotEng 
       0    1.1448818    298.92448   -136.12453   -8399.7221 
  100000    1.1542869    301.12847   -537.23362   -8448.7991 
  200000    1.1504558    288.72658    876.91815   -8378.3503 
  300000    1.1565222    307.91497    356.86685   -8375.8199 
  400000    1.1434878    299.77313    230.08156   -8333.4795 
  500000       1.1633    311.46276    1095.4212   -8342.7371 
  600000    1.1634579    285.80189   -420.89995   -8434.1536 
  700000    1.1477917    299.31304   -412.96225   -8345.5941 
  800000    1.1393253      299.528   -368.15882   -8366.3637 
  900000    1.1637024    302.36027    507.91263   -8387.8518 
 1000000    1.1524088    301.73504   -301.08969   -8338.9381 
 1100000    1.1370381    303.92692   -8.4918423   -8372.3517 
 1200000    1.1457452    303.58628    297.35024   -8399.9093 
 1300000    1.1474846    305.52808    865.71501   -8364.4772 
 1400000     1.146602    294.92701   -846.25193   -8400.2158 
 1500000    1.1610131    297.31479     82.87904   -8401.3208 
 1600000    1.1547985    297.64654    1100.4358   -8369.3681 
 1700000    1.1640111    303.61006    1270.0546    -8346.952 
 1800000     1.151421    293.97414   -94.158895   -8399.9174 
 1900000    1.1409289    290.45063   -741.64895    -8405.228 
 2000000    1.1643835    305.81255    1375.7449   -8339.2308 
 2100000    1.1512623    286.81209    11.327769   -8409.3448 
 2200000    1.1840543    296.33466    910.49797   -8376.5965 
 2300000      1.16522    299.08291   -822.06148   -8373.3499 
 2400000    1.1576566    295.37147    1386.7966   -8401.7599 
 2500000    1.1373868    300.91777   -457.29644   -8379.5316 
 2600000    1.1793693    303.74184    306.48278   -8410.7774 
 2700000    1.1296465    291.28698    -206.8166    -8437.379 
 2800000     1.144057    309.41482    375.63406   -8342.5528 
 2900000    1.1623815    287.88429     -117.804   -8418.6317 
 3000000     1.136055    295.05059   -1515.1586   -8429.0435 
 3100000    1.1418751    296.92141    220.02131   -8368.8254 
 3200000    1.1394995    301.99632   -1247.3438   -8408.3078 
 3300000    1.1543021    299.56871    846.55746   -8356.5688 
 3400000    1.1527966    298.37707   -114.21322   -8398.7779 
 3500000     1.134905    314.15979   -659.69611   -8340.9219 
 3600000    1.1516098    293.59348    142.27832   -8471.4207 
 3700000    1.1393961    297.85679    -599.5691   -8383.6266 
 3800000    1.1351522    311.28476   -956.14227    -8332.421 
 3900000     1.142606    305.10479   -419.73573   -8416.1292 
 4000000    1.1406737    298.23651   -907.98295   -8349.5991 
 4100000    1.1753819    295.97073    708.13562   -8479.5244 
 4200000    1.1649276    299.31581    326.08495   -8435.2619 
 4300000    1.1500919    298.00469    774.40027   -8415.1126 
 4400000    1.1384455    298.40925    93.226129    -8402.356 
 4500000    1.1864189    306.21225    1064.1508   -8354.2381 
 4600000    1.1546907    292.36894    463.71938   -8448.8904 
 4700000    1.1732001    295.31584    972.96632    -8415.605 
 4800000    1.1546801    291.25967    704.79995   -8388.8933 
 4900000    1.1429819    290.66495    258.84238   -8423.6118 
 5000000    1.1681677    295.83974    1148.6164    -8445.479 
Loop time of 22404.8 on 12 procs for 5000000 steps with 1572 atoms

Performance: 19.282 ns/day, 1.245 hours/ns, 223.167 timesteps/s
93.7% CPU use with 12 MPI tasks x no OpenMP threads

MPI task timing breakdown:
Section |  min time  |  avg time  |  max time  |%varavg| %total
---------------------------------------------------------------
Pair    | 12377      | 13292      | 14125      | 508.7 | 59.33
Bond    | 3.1266     | 3.4393     | 3.9319     |  14.8 |  0.02
Kspace  | 4447.8     | 5286.8     | 6205.4     | 808.8 | 23.60
Neigh   | 413.4      | 413.64     | 413.96     |   0.7 |  1.85
Comm    | 700.61     | 709.28     | 720        |  25.2 |  3.17
Output  | 0.21581    | 0.21632    | 0.22117    |   0.3 |  0.00
Modify  | 2478.7     | 2581.3     | 2614.7     |  63.9 | 11.52
Other   |            | 117.7      |            |       |  0.53

Nlocal:    131 ave 149 max 119 min
Histogram: 2 0 2 2 3 0 2 0 0 1
Nghost:    4253.08 ave 4300 max 4197 min
Histogram: 2 0 2 0 0 3 1 1 0 3
Neighs:    48324.4 ave 54509 max 42826 min
Histogram: 1 1 3 1 1 1 0 1 1 2

Total # of neighbors = 579893
Ave neighs/atom = 368.889
Ave special neighs/atom = 1.9084
Neighbor list builds = 203619
Dangerous builds = 0
Changing box ...
  orthogonal box = (0.164373 0.164373 0.164373) to (25.7969 25.6839 25.6839)
  orthogonal box = (0.164373 0.164373 0.164373) to (25.7969 25.7969 25.6839)
  orthogonal box = (0.164373 0.164373 0.164373) to (25.7969 25.7969 25.7969)
PPPM initialization ...
  extracting TIP4P info from pair style
  using 12-bit tables for long-range coulomb (../kspace.cpp:321)
  G vector (1/distance) = 0.310402
  grid = 24 24 24
  stencil order = 5
  estimated absolute RMS force accuracy = 0.003659
  estimated relative force accuracy = 1.1019e-05
  using double precision FFTs
  3d grid and FFT values/proc = 5415 1152
Setting up Verlet run ...
  Unit style    : real
  Current step  : 5000000
  Time step     : 0.001
Per MPI rank memory allocation (min/avg/max) = 8.659 | 8.663 | 8.666 Mbytes
Step Density Temp Press TotEng 
 5000000    1.1527874    295.83974    59894.292   -8498.4577 
 5010000    1.1527874    293.46593   -283.74482    -8399.912 
Loop time of 30.0539 on 12 procs for 10000 steps with 1572 atoms

Performance: 0.029 ns/day, 834.829 hours/ns, 332.736 timesteps/s
93.1% CPU use with 12 MPI tasks x no OpenMP threads

MPI task timing breakdown:
Section |  min time  |  avg time  |  max time  |%varavg| %total
---------------------------------------------------------------
Pair    | 16.38      | 18.187     | 20.508     |  32.0 | 60.51
Bond    | 0.0030953  | 0.0038195  | 0.0043552  |   0.6 |  0.01
Kspace  | 7.0236     | 9.333      | 11.126     |  43.9 | 31.05
Neigh   | 0          | 0          | 0          |   0.0 |  0.00
Comm    | 1.2289     | 1.2914     | 1.3569     |   2.9 |  4.30
Output  | 6.1616e-05 | 7.5122e-05 | 0.00020155 |   0.0 |  0.00
Modify  | 1.0417     | 1.0615     | 1.0814     |   1.2 |  3.53
Other   |            | 0.1772     |            |       |  0.59

Nlocal:    131 ave 147 max 116 min
Histogram: 1 1 1 1 3 1 1 2 0 1
Nghost:    4233 ave 4277 max 4198 min
Histogram: 2 1 1 2 0 1 3 1 0 1
Neighs:    47686 ave 53799 max 42571 min
Histogram: 2 1 3 0 0 2 0 2 0 2

Total # of neighbors = 572232
Ave neighs/atom = 364.015
Ave special neighs/atom = 1.9084
Neighbor list builds = 0
Dangerous builds = 0
PPPM initialization ...
  extracting TIP4P info from pair style
  using 12-bit tables for long-range coulomb (../kspace.cpp:321)
  G vector (1/distance) = 0.310402
  grid = 24 24 24
  stencil order = 5
  estimated absolute RMS force accuracy = 0.003659
  estimated relative force accuracy = 1.1019e-05
  using double precision FFTs
  3d grid and FFT values/proc = 5415 1152
Setting up Verlet run ...
  Unit style    : real
  Current step  : 5010000
  Time step     : 0.01
Per MPI rank memory allocation (min/avg/max) = 8.659 | 8.663 | 8.666 Mbytes
Step Density Temp Press TotEng 
 5010000    1.1527874    293.46593   -283.75858    -8399.912 
 5020000    1.1527874    296.24956   -689.32607   -8420.8852 
Loop time of 30.0913 on 12 procs for 10000 steps with 1572 atoms

Performance: 0.287 ns/day, 83.587 hours/ns, 332.322 timesteps/s
93.3% CPU use with 12 MPI tasks x no OpenMP threads

MPI task timing breakdown:
Section |  min time  |  avg time  |  max time  |%varavg| %total
---------------------------------------------------------------
Pair    | 16.506     | 18.181     | 20.491     |  28.7 | 60.42
Bond    | 0.003179   | 0.0039693  | 0.0046267  |   0.8 |  0.01
Kspace  | 7.0641     | 9.3465     | 10.981     |  39.3 | 31.06
Neigh   | 0.0079352  | 0.0079508  | 0.0079612  |   0.0 |  0.03
Comm    | 1.2612     | 1.3013     | 1.3835     |   2.8 |  4.32
Output  | 6.0707e-05 | 7.4358e-05 | 0.00020692 |   0.0 |  0.00
Modify  | 1.056      | 1.0785     | 1.0989     |   1.1 |  3.58
Other   |            | 0.1717     |            |       |  0.57

Nlocal:    131 ave 142 max 123 min
Histogram: 1 2 0 4 2 0 0 1 1 1
Nghost:    4207.08 ave 4235 max 4165 min
Histogram: 1 1 0 1 1 0 4 1 0 3
Neighs:    47725.4 ave 53534 max 44197 min
Histogram: 3 1 2 1 1 1 1 1 0 1

Total # of neighbors = 572705
Ave neighs/atom = 364.316
Ave special neighs/atom = 1.9084
Neighbor list builds = 4
Dangerous builds = 0
PPPM initialization ...
  extracting TIP4P info from pair style
  using 12-bit tables for long-range coulomb (../kspace.cpp:321)
  G vector (1/distance) = 0.310402
  grid = 24 24 24
  stencil order = 5
  estimated absolute RMS force accuracy = 0.003659
  estimated relative force accuracy = 1.1019e-05
  using double precision FFTs
  3d grid and FFT values/proc = 5415 1152
Setting up Verlet run ...
  Unit style    : real
  Current step  : 5020000
  Time step     : 0.1
Per MPI rank memory allocation (min/avg/max) = 8.659 | 8.663 | 8.666 Mbytes
Step Density Temp Press TotEng 
 5020000    1.1527874    296.24956   -689.58783   -8420.8852 
 5030000    1.1527874    310.02572   -457.73207   -8387.3862 
Loop time of 30.737 on 12 procs for 10000 steps with 1572 atoms

Performance: 2.811 ns/day, 8.538 hours/ns, 325.341 timesteps/s
92.9% CPU use with 12 MPI tasks x no OpenMP threads

MPI task timing breakdown:
Section |  min time  |  avg time  |  max time  |%varavg| %total
---------------------------------------------------------------
Pair    | 16.336     | 18.381     | 20.76      |  32.6 | 59.80
Bond    | 0.0030908  | 0.0039133  | 0.0050391  |   0.9 |  0.01
Kspace  | 7.3093     | 9.6613     | 11.671     |  44.2 | 31.43
Neigh   | 0.083314   | 0.083362   | 0.083426   |   0.0 |  0.27
Comm    | 1.316      | 1.3545     | 1.3967     |   2.5 |  4.41
Output  | 6.1944e-05 | 7.5866e-05 | 0.0002096  |   0.0 |  0.00
Modify  | 1.0652     | 1.0771     | 1.0937     |   0.9 |  3.50
Other   |            | 0.1753     |            |       |  0.57

Nlocal:    131 ave 145 max 117 min
Histogram: 1 2 2 0 1 2 0 0 2 2
Nghost:    4219.33 ave 4336 max 4111 min
Histogram: 2 1 1 0 2 0 4 1 0 1
Neighs:    47754.4 ave 55376 max 41933 min
Histogram: 1 3 0 2 1 0 3 1 0 1

Total # of neighbors = 573053
Ave neighs/atom = 364.538
Ave special neighs/atom = 1.9084
Neighbor list builds = 41
Dangerous builds = 0
PPPM initialization ...
  extracting TIP4P info from pair style
  using 12-bit tables for long-range coulomb (../kspace.cpp:321)
  G vector (1/distance) = 0.310402
  grid = 24 24 24
  stencil order = 5
  estimated absolute RMS force accuracy = 0.003659
  estimated relative force accuracy = 1.1019e-05
  using double precision FFTs
  3d grid and FFT values/proc = 5415 1152
Setting up Verlet run ...
  Unit style    : real
  Current step  : 5030000
  Time step     : 0.2
Per MPI rank memory allocation (min/avg/max) = 8.659 | 8.663 | 8.666 Mbytes
Step Density Temp Press TotEng 
 5030000    1.1527874    310.02572   -457.98897   -8387.3862 
 5040000    1.1527874    298.56635    894.45491   -8397.6181 
Loop time of 30.5873 on 12 procs for 10000 steps with 1572 atoms

Performance: 5.649 ns/day, 4.248 hours/ns, 326.933 timesteps/s
93.1% CPU use with 12 MPI tasks x no OpenMP threads

MPI task timing breakdown:
Section |  min time  |  avg time  |  max time  |%varavg| %total
---------------------------------------------------------------
Pair    | 17.201     | 18.457     | 20.196     |  24.5 | 60.34
Bond    | 0.0031138  | 0.0039656  | 0.0051035  |   0.8 |  0.01
Kspace  | 7.6748     | 9.3618     | 10.606     |  33.7 | 30.61
Neigh   | 0.16173    | 0.16186    | 0.162      |   0.0 |  0.53
Comm    | 1.3182     | 1.3592     | 1.4091     |   2.2 |  4.44
Output  | 6.1378e-05 | 7.4938e-05 | 0.0002078  |   0.0 |  0.00
Modify  | 1.0596     | 1.0697     | 1.0874     |   0.8 |  3.50
Other   |            | 0.1742     |            |       |  0.57

Nlocal:    131 ave 145 max 110 min
Histogram: 1 1 0 1 1 0 3 1 2 2
Nghost:    4194.17 ave 4243 max 4133 min
Histogram: 1 1 1 2 1 1 0 1 1 3
Neighs:    47680.9 ave 57327 max 42389 min
Histogram: 4 0 0 5 0 1 0 0 1 1

Total # of neighbors = 572171
Ave neighs/atom = 363.976
Ave special neighs/atom = 1.9084
Neighbor list builds = 80
Dangerous builds = 0
PPPM initialization ...
  extracting TIP4P info from pair style
  using 12-bit tables for long-range coulomb (../kspace.cpp:321)
  G vector (1/distance) = 0.310402
  grid = 24 24 24
  stencil order = 5
  estimated absolute RMS force accuracy = 0.003659
  estimated relative force accuracy = 1.1019e-05
  using double precision FFTs
  3d grid and FFT values/proc = 5415 1152
Setting up Verlet run ...
  Unit style    : real
  Current step  : 5040000
  Time step     : 0.5
Per MPI rank memory allocation (min/avg/max) = 8.659 | 8.663 | 8.666 Mbytes
Step Density Temp Press TotEng 
 5040000    1.1527874    298.56635    895.35247   -8397.6181 
 5050000    1.1527874    297.03317    33.057876   -8394.1839 
Loop time of 30.7973 on 12 procs for 10000 steps with 1572 atoms

Performance: 14.027 ns/day, 1.711 hours/ns, 324.704 timesteps/s
93.9% CPU use with 12 MPI tasks x no OpenMP threads

MPI task timing breakdown:
Section |  min time  |  avg time  |  max time  |%varavg| %total
---------------------------------------------------------------
Pair    | 17.482     | 18.631     | 20.344     |  19.0 | 60.50
Bond    | 0.0031406  | 0.0038414  | 0.0045128  |   0.7 |  0.01
Kspace  | 7.4464     | 9.1335     | 10.283     |  27.0 | 29.66
Neigh   | 0.4127     | 0.41305    | 0.41339    |   0.0 |  1.34
Comm    | 1.3289     | 1.3557     | 1.3836     |   1.3 |  4.40
Output  | 5.962e-05  | 7.3555e-05 | 0.00020528 |   0.0 |  0.00
Modify  | 1.076      | 1.0897     | 1.1059     |   0.8 |  3.54
Other   |            | 0.1704     |            |       |  0.55

Nlocal:    131 ave 141 max 120 min
Histogram: 2 0 0 3 1 1 1 1 2 1
Nghost:    4198.92 ave 4255 max 4124 min
Histogram: 2 0 1 0 1 2 1 1 2 2
Neighs:    47696 ave 52608 max 43589 min
Histogram: 2 1 1 2 1 1 1 0 2 1

Total # of neighbors = 572352
Ave neighs/atom = 364.092
Ave special neighs/atom = 1.9084
Neighbor list builds = 204
Dangerous builds = 0
PPPM initialization ...
  extracting TIP4P info from pair style
  using 12-bit tables for long-range coulomb (../kspace.cpp:321)
  G vector (1/distance) = 0.310402
  grid = 24 24 24
  stencil order = 5
  estimated absolute RMS force accuracy = 0.003659
  estimated relative force accuracy = 1.1019e-05
  using double precision FFTs
  3d grid and FFT values/proc = 5415 1152
Setting up Verlet run ...
  Unit style    : real
  Current step  : 5050000
  Time step     : 1
Per MPI rank memory allocation (min/avg/max) = 8.659 | 8.663 | 8.666 Mbytes
Step Density Temp Press TotEng 
 5050000    1.1527874    297.03317    30.751021   -8394.1839 
 5100000    1.1527874    306.23967   -110.52512   -8419.9591 
 5200000    1.1527874    303.94217    1061.4153   -8378.6374 
 5300000    1.1527874    294.37782    225.41834    -8451.568 
 5400000    1.1527874    314.84633    68.638233   -8361.8098 
 5500000    1.1527874    297.15533    252.88107   -8421.4021 
 5600000    1.1527874    309.66999   -151.15443   -8368.1224 
 5700000    1.1527874    306.54539   -287.73067   -8390.9726 
 5800000    1.1527874     306.5528    687.43138   -8409.0692 
 5900000    1.1527874    304.06364    1379.5443   -8345.5358 
 6000000    1.1527874    295.41381     -517.943   -8388.6646 
 6100000    1.1527874    311.09675     77.99939   -8326.2735 
 6200000    1.1527874    298.43483   -283.84362   -8374.6088 
 6300000    1.1527874    304.95802   -355.69705   -8281.0669 
 6400000    1.1527874    305.17141    183.04005   -8308.7012 
 6500000    1.1527874    287.46915   -288.36782   -8450.3967 
 6600000    1.1527874    306.81814   -457.30274   -8348.9152 
 6700000    1.1527874    297.55696    332.66371   -8359.3608 
 6800000    1.1527874    293.60392    80.950532   -8440.2501 
 6900000    1.1527874    302.72851    1438.2496   -8396.0193 
 7000000    1.1527874    294.59112    312.08115   -8354.7125 
 7100000    1.1527874    292.82673    485.69147   -8376.8893 
 7200000    1.1527874    303.59264   -715.23129   -8371.1859 
 7300000    1.1527874    286.83048    689.94469   -8420.2821 
 7400000    1.1527874    297.46061    76.171801   -8384.6173 
 7500000    1.1527874    303.01548    813.45676   -8465.5173 
 7550000    1.1527874    294.41651   -156.43758   -8381.7514 
Loop time of 7930.99 on 12 procs for 2500000 steps with 1572 atoms

Performance: 27.235 ns/day, 0.881 hours/ns, 315.219 timesteps/s
93.3% CPU use with 12 MPI tasks x no OpenMP threads

MPI task timing breakdown:
Section |  min time  |  avg time  |  max time  |%varavg| %total
---------------------------------------------------------------
Pair    | 4321.7     | 4686.1     | 5003.2     | 363.1 | 59.09
Bond    | 0.79587    | 1.0096     | 1.1932     |  12.0 |  0.01
Kspace  | 2048.9     | 2363.6     | 2724.3     | 506.1 | 29.80
Neigh   | 204.34     | 204.47     | 204.62     |   0.6 |  2.58
Comm    | 351.87     | 357.71     | 361.91     |  16.6 |  4.51
Output  | 0.10652    | 0.1068     | 0.10948    |   0.2 |  0.00
Modify  | 273.23     | 275.69     | 278.19     |   9.2 |  3.48
Other   |            | 42.34      |            |       |  0.53

Nlocal:    131 ave 145 max 122 min
Histogram: 2 0 1 3 3 2 0 0 0 1
Nghost:    4175.67 ave 4214 max 4135 min
Histogram: 2 0 0 2 2 1 0 3 1 1
Neighs:    47708.6 ave 51863 max 43424 min
Histogram: 1 0 3 1 2 1 0 2 0 2

Total # of neighbors = 572503
Ave neighs/atom = 364.188
Ave special neighs/atom = 1.9084
Neighbor list builds = 100680
Dangerous builds = 0
PPPM initialization ...
  extracting TIP4P info from pair style
  using 12-bit tables for long-range coulomb (../kspace.cpp:321)
  G vector (1/distance) = 0.310402
  grid = 24 24 24
  stencil order = 5
  estimated absolute RMS force accuracy = 0.003659
  estimated relative force accuracy = 1.1019e-05
  using double precision FFTs
  3d grid and FFT values/proc = 5415 1152
Setting up Verlet run ...
  Unit style    : real
  Current step  : 0
  Time step     : 1
Per MPI rank memory allocation (min/avg/max) = 14.31 | 14.31 | 14.32 Mbytes
Step Density Temp Press TotEng 
       0    1.1527874    294.41651   -156.35425   -8381.7514 
  100000    1.1527874    295.18911    698.25274   -8436.3493 
  200000    1.1527874    303.95895   -382.36188   -8402.9674 
  250000    1.1527874    295.23294   -187.10021   -8407.5107 
Loop time of 1243.56 on 12 procs for 250000 steps with 1572 atoms

Performance: 17.369 ns/day, 1.382 hours/ns, 201.035 timesteps/s
93.4% CPU use with 12 MPI tasks x no OpenMP threads

MPI task timing breakdown:
Section |  min time  |  avg time  |  max time  |%varavg| %total
---------------------------------------------------------------
Pair    | 703.9      | 756.56     | 812.17     | 138.6 | 60.84
Bond    | 3.325      | 3.3836     | 3.4317     |   1.9 |  0.27
Kspace  | 294.38     | 349.9      | 402.87     | 204.5 | 28.14
Neigh   | 20.376     | 20.387     | 20.4       |   0.2 |  1.64
Comm    | 36.435     | 36.894     | 37.437     |   4.9 |  2.97
Output  | 0.069403   | 0.069808   | 0.070334   |   0.1 |  0.01
Modify  | 71.225     | 71.489     | 71.63      |   1.3 |  5.75
Other   |            | 4.881      |            |       |  0.39

Nlocal:    131 ave 139 max 113 min
Histogram: 1 0 0 1 0 2 1 1 4 2
Nghost:    4186.17 ave 4239 max 4130 min
Histogram: 2 1 0 2 1 0 2 1 2 1
Neighs:    47683.6 ave 53100 max 42961 min
Histogram: 2 1 2 1 1 0 1 1 2 1

Total # of neighbors = 572203
Ave neighs/atom = 363.997
Ave special neighs/atom = 1.9084
Neighbor list builds = 10067
Dangerous builds = 0
PPPM initialization ...
  extracting TIP4P info from pair style
  using 12-bit tables for long-range coulomb (../kspace.cpp:321)
  G vector (1/distance) = 0.310402
  grid = 24 24 24
  stencil order = 5
  estimated absolute RMS force accuracy = 0.003659
  estimated relative force accuracy = 1.1019e-05
  using double precision FFTs
  3d grid and FFT values/proc = 5415 1152
Setting up Verlet run ...
  Unit style    : real
  Current step  : 250000
  Time step     : 1
Per MPI rank memory allocation (min/avg/max) = 14.31 | 14.31 | 14.32 Mbytes
Step Density Temp Press TotEng 
  250000    1.1527874    295.23294    -187.1873   -8407.5107 
  300000    1.1527874    290.83686   -456.91901    -8467.244 
  400000    1.1527874    300.05981   -413.38951   -8381.5517 
  500000    1.1527874    303.30115    216.98026   -8420.9864 
Loop time of 1243.69 on 12 procs for 250000 steps with 1572 atoms

Performance: 17.368 ns/day, 1.382 hours/ns, 201.014 timesteps/s
93.4% CPU use with 12 MPI tasks x no OpenMP threads

MPI task timing breakdown:
Section |  min time  |  avg time  |  max time  |%varavg| %total
---------------------------------------------------------------
Pair    | 692.1      | 756.98     | 809.96     | 143.8 | 60.87
Bond    | 3.3053     | 3.3693     | 3.4041     |   1.8 |  0.27
Kspace  | 296.41     | 349.72     | 414.55     | 212.3 | 28.12
Neigh   | 20.442     | 20.453     | 20.462     |   0.1 |  1.64
Comm    | 36.419     | 36.85      | 37.378     |   5.0 |  2.96
Output  | 0.10102    | 0.10154    | 0.10179    |   0.1 |  0.01
Modify  | 71.096     | 71.349     | 71.48      |   1.3 |  5.74
Other   |            | 4.873      |            |       |  0.39

Nlocal:    131 ave 144 max 116 min
Histogram: 1 1 0 3 1 2 1 0 0 3
Nghost:    4183.75 ave 4268 max 4096 min
Histogram: 1 1 2 0 2 1 1 2 1 1
Neighs:    47690.6 ave 53042 max 39858 min
Histogram: 1 0 0 1 1 4 2 1 0 2

Total # of neighbors = 572287
Ave neighs/atom = 364.05
Ave special neighs/atom = 1.9084
Neighbor list builds = 10083
Dangerous builds = 0
PPPM initialization ...
  extracting TIP4P info from pair style
  using 12-bit tables for long-range coulomb (../kspace.cpp:321)
  G vector (1/distance) = 0.310402
  grid = 24 24 24
  stencil order = 5
  estimated absolute RMS force accuracy = 0.003659
  estimated relative force accuracy = 1.1019e-05
  using double precision FFTs
  3d grid and FFT values/proc = 5415 1152
Setting up Verlet run ...
  Unit style    : real
  Current step  : 500000
  Time step     : 1
Per MPI rank memory allocation (min/avg/max) = 14.31 | 14.31 | 14.32 Mbytes
Step Density Temp Press TotEng 
  500000    1.1527874    303.30115    216.89253   -8420.9864 
  600000    1.1527874    302.60929    133.73329    -8441.562 
  700000    1.1527874    297.20127   -646.51738   -8441.5092 
  750000    1.1527874    296.89834   -243.72282   -8410.4776 
Loop time of 1250.29 on 12 procs for 250000 steps with 1572 atoms

Performance: 17.276 ns/day, 1.389 hours/ns, 199.954 timesteps/s
93.2% CPU use with 12 MPI tasks x no OpenMP threads

MPI task timing breakdown:
Section |  min time  |  avg time  |  max time  |%varavg| %total
---------------------------------------------------------------
Pair    | 702.21     | 759.07     | 814.06     | 146.6 | 60.71
Bond    | 3.2893     | 3.363      | 3.4088     |   1.9 |  0.27
Kspace  | 298.65     | 354.01     | 410.8      | 215.4 | 28.31
Neigh   | 20.587     | 20.597     | 20.609     |   0.1 |  1.65
Comm    | 36.363     | 36.85      | 37.414     |   5.3 |  2.95
Output  | 0.067273   | 0.06749    | 0.06806    |   0.1 |  0.01
Modify  | 71.185     | 71.444     | 71.599     |   1.4 |  5.71
Other   |            | 4.881      |            |       |  0.39

Nlocal:    131 ave 142 max 118 min
Histogram: 1 1 1 1 1 0 3 2 1 1
Nghost:    4206 ave 4259 max 4167 min
Histogram: 2 0 5 0 1 1 0 1 0 2
Neighs:    47728.9 ave 52980 max 41806 min
Histogram: 1 1 1 0 1 3 2 1 1 1

Total # of neighbors = 572747
Ave neighs/atom = 364.343
Ave special neighs/atom = 1.9084
Neighbor list builds = 10095
Dangerous builds = 0
PPPM initialization ...
  extracting TIP4P info from pair style
  using 12-bit tables for long-range coulomb (../kspace.cpp:321)
  G vector (1/distance) = 0.310402
  grid = 24 24 24
  stencil order = 5
  estimated absolute RMS force accuracy = 0.003659
  estimated relative force accuracy = 1.1019e-05
  using double precision FFTs
  3d grid and FFT values/proc = 5415 1152
Setting up Verlet run ...
  Unit style    : real
  Current step  : 750000
  Time step     : 1
Per MPI rank memory allocation (min/avg/max) = 14.31 | 14.31 | 14.32 Mbytes
Step Density Temp Press TotEng 
  750000    1.1527874    296.89834   -243.99789   -8410.4776 
  800000    1.1527874    297.24614    759.18307   -8343.2817 
  900000    1.1527874    294.87189    341.15221   -8410.8476 
 1000000    1.1527874    301.58336   -236.23497   -8365.2125 
Loop time of 1253.3 on 12 procs for 250000 steps with 1572 atoms

Performance: 17.234 ns/day, 1.393 hours/ns, 199.473 timesteps/s
93.0% CPU use with 12 MPI tasks x no OpenMP threads

MPI task timing breakdown:
Section |  min time  |  avg time  |  max time  |%varavg| %total
---------------------------------------------------------------
Pair    | 694.27     | 757.5      | 820.03     | 169.8 | 60.44
Bond    | 3.2927     | 3.3528     | 3.39       |   1.7 |  0.27
Kspace  | 296.05     | 358.7      | 422.2      | 247.5 | 28.62
Neigh   | 20.548     | 20.562     | 20.575     |   0.1 |  1.64
Comm    | 36.309     | 36.797     | 37.425     |   5.3 |  2.94
Output  | 0.10116    | 0.10159    | 0.10207    |   0.1 |  0.01
Modify  | 71.11      | 71.402     | 71.581     |   1.5 |  5.70
Other   |            | 4.896      |            |       |  0.39

Nlocal:    131 ave 141 max 117 min
Histogram: 1 0 0 2 2 1 3 0 0 3
Nghost:    4217.17 ave 4308 max 4117 min
Histogram: 1 1 2 2 0 0 0 3 2 1
Neighs:    47686.8 ave 55436 max 42306 min
Histogram: 2 1 3 1 1 1 0 1 0 2

Total # of neighbors = 572242
Ave neighs/atom = 364.022
Ave special neighs/atom = 1.9084
Neighbor list builds = 10058
Dangerous builds = 0
PPPM initialization ...
  extracting TIP4P info from pair style
  using 12-bit tables for long-range coulomb (../kspace.cpp:321)
  G vector (1/distance) = 0.310402
  grid = 24 24 24
  stencil order = 5
  estimated absolute RMS force accuracy = 0.003659
  estimated relative force accuracy = 1.1019e-05
  using double precision FFTs
  3d grid and FFT values/proc = 5415 1152
Setting up Verlet run ...
  Unit style    : real
  Current step  : 1000000
  Time step     : 1
Per MPI rank memory allocation (min/avg/max) = 14.31 | 14.31 | 14.32 Mbytes
Step Density Temp Press TotEng 
 1000000    1.1527874    301.58336   -235.99224   -8365.2125 
 1100000    1.1527874    288.24793   -463.95147   -8415.1267 
 1200000    1.1527874    304.32528    257.19156   -8364.4365 
 1250000    1.1527874    299.96983     388.0608   -8341.8902 
Loop time of 1246.58 on 12 procs for 250000 steps with 1572 atoms

Performance: 17.327 ns/day, 1.385 hours/ns, 200.549 timesteps/s
93.2% CPU use with 12 MPI tasks x no OpenMP threads

MPI task timing breakdown:
Section |  min time  |  avg time  |  max time  |%varavg| %total
---------------------------------------------------------------
Pair    | 691.07     | 756.92     | 815.09     | 135.9 | 60.72
Bond    | 3.3155     | 3.3794     | 3.4248     |   2.1 |  0.27
Kspace  | 294.7      | 352.75     | 418.85     | 199.6 | 28.30
Neigh   | 20.387     | 20.404     | 20.423     |   0.3 |  1.64
Comm    | 36.449     | 36.819     | 37.337     |   4.6 |  2.95
Output  | 0.067326   | 0.067647   | 0.067987   |   0.1 |  0.01
Modify  | 71.127     | 71.376     | 71.53      |   1.4 |  5.73
Other   |            | 4.865      |            |       |  0.39

Nlocal:    131 ave 138 max 120 min
Histogram: 1 0 1 0 2 1 3 0 2 2
Nghost:    4173.5 ave 4228 max 4129 min
Histogram: 2 2 1 0 3 0 0 0 2 2
Neighs:    47702.4 ave 51064 max 44045 min
Histogram: 1 0 1 1 3 1 3 0 1 1

Total # of neighbors = 572429
Ave neighs/atom = 364.141
Ave special neighs/atom = 1.9084
Neighbor list builds = 10039
Dangerous builds = 0
PPPM initialization ...
  extracting TIP4P info from pair style
  using 12-bit tables for long-range coulomb (../kspace.cpp:321)
  G vector (1/distance) = 0.310402
  grid = 24 24 24
  stencil order = 5
  estimated absolute RMS force accuracy = 0.003659
  estimated relative force accuracy = 1.1019e-05
  using double precision FFTs
  3d grid and FFT values/proc = 5415 1152
Setting up Verlet run ...
  Unit style    : real
  Current step  : 1250000
  Time step     : 1
Per MPI rank memory allocation (min/avg/max) = 14.31 | 14.31 | 14.32 Mbytes
Step Density Temp Press TotEng 
 1250000    1.1527874    299.96983    387.91869   -8341.8902 
 1300000    1.1527874    298.86979   -159.96102   -8451.1495 
 1400000    1.1527874    302.74768   -628.13173   -8415.2755 
 1500000    1.1527874    306.49867      222.788   -8427.5841 
Loop time of 1252.86 on 12 procs for 250000 steps with 1572 atoms

Performance: 17.241 ns/day, 1.392 hours/ns, 199.544 timesteps/s
93.2% CPU use with 12 MPI tasks x no OpenMP threads

MPI task timing breakdown:
Section |  min time  |  avg time  |  max time  |%varavg| %total
---------------------------------------------------------------
Pair    | 675.16     | 758.64     | 820.12     | 165.0 | 60.55
Bond    | 3.3        | 3.3578     | 3.3921     |   1.7 |  0.27
Kspace  | 295.45     | 357.28     | 440.72     | 241.1 | 28.52
Neigh   | 20.403     | 20.413     | 20.423     |   0.2 |  1.63
Comm    | 36.481     | 36.856     | 37.464     |   4.9 |  2.94
Output  | 0.10056    | 0.10087    | 0.10113    |   0.0 |  0.01
Modify  | 71.092     | 71.369     | 71.521     |   1.4 |  5.70
Other   |            | 4.849      |            |       |  0.39

Nlocal:    131 ave 144 max 123 min
Histogram: 3 1 0 2 3 1 1 0 0 1
Nghost:    4203.92 ave 4276 max 4136 min
Histogram: 2 1 0 1 3 2 0 1 0 2
Neighs:    47664.9 ave 51416 max 42682 min
Histogram: 1 0 1 1 2 1 1 3 1 1

Total # of neighbors = 571979
Ave neighs/atom = 363.854
Ave special neighs/atom = 1.9084
Neighbor list builds = 10061
Dangerous builds = 0
PPPM initialization ...
  extracting TIP4P info from pair style
  using 12-bit tables for long-range coulomb (../kspace.cpp:321)
  G vector (1/distance) = 0.310402
  grid = 24 24 24
  stencil order = 5
  estimated absolute RMS force accuracy = 0.003659
  estimated relative force accuracy = 1.1019e-05
  using double precision FFTs
  3d grid and FFT values/proc = 5415 1152
Setting up Verlet run ...
  Unit style    : real
  Current step  : 1500000
  Time step     : 1
Per MPI rank memory allocation (min/avg/max) = 14.31 | 14.31 | 14.32 Mbytes
Step Density Temp Press TotEng 
 1500000    1.1527874    306.49867     222.5029   -8427.5841 
 1600000    1.1527874    296.96773      664.055   -8410.3608 
 1700000    1.1527874    291.68125    1214.8109   -8434.4566 
 1750000    1.1527874    291.44621   -463.07337   -8414.1106 
Loop time of 1240.34 on 12 procs for 250000 steps with 1572 atoms

Performance: 17.415 ns/day, 1.378 hours/ns, 201.558 timesteps/s
93.6% CPU use with 12 MPI tasks x no OpenMP threads

MPI task timing breakdown:
Section |  min time  |  avg time  |  max time  |%varavg| %total
---------------------------------------------------------------
Pair    | 699.52     | 758.44     | 807.86     | 131.4 | 61.15
Bond    | 3.2926     | 3.3793     | 3.4168     |   1.7 |  0.27
Kspace  | 295.11     | 344.89     | 404.08     | 195.6 | 27.81
Neigh   | 20.409     | 20.428     | 20.446     |   0.2 |  1.65
Comm    | 36.466     | 36.804     | 37.345     |   4.9 |  2.97
Output  | 0.067575   | 0.067804   | 0.068245   |   0.1 |  0.01
Modify  | 71.159     | 71.434     | 71.637     |   1.4 |  5.76
Other   |            | 4.896      |            |       |  0.39

Nlocal:    131 ave 143 max 122 min
Histogram: 2 2 2 0 1 1 1 1 0 2
Nghost:    4193 ave 4270 max 4097 min
Histogram: 1 0 2 2 0 1 2 1 1 2
Neighs:    47721.4 ave 54095 max 42676 min
Histogram: 1 0 3 3 0 2 1 0 1 1

Total # of neighbors = 572657
Ave neighs/atom = 364.286
Ave special neighs/atom = 1.9084
Neighbor list builds = 10070
Dangerous builds = 0
PPPM initialization ...
  extracting TIP4P info from pair style
  using 12-bit tables for long-range coulomb (../kspace.cpp:321)
  G vector (1/distance) = 0.310402
  grid = 24 24 24
  stencil order = 5
  estimated absolute RMS force accuracy = 0.003659
  estimated relative force accuracy = 1.1019e-05
  using double precision FFTs
  3d grid and FFT values/proc = 5415 1152
Setting up Verlet run ...
  Unit style    : real
  Current step  : 1750000
  Time step     : 1
Per MPI rank memory allocation (min/avg/max) = 14.31 | 14.31 | 14.32 Mbytes
Step Density Temp Press TotEng 
 1750000    1.1527874    291.44621   -463.01631   -8414.1106 
 1800000    1.1527874     297.4027   -927.29137   -8429.4317 
 1900000    1.1527874    295.68956   -82.060241   -8440.7722 
 2000000    1.1527874    293.41217    89.737064   -8393.0779 
Loop time of 1250.79 on 12 procs for 250000 steps with 1572 atoms

Performance: 17.269 ns/day, 1.390 hours/ns, 199.873 timesteps/s
93.2% CPU use with 12 MPI tasks x no OpenMP threads

MPI task timing breakdown:
Section |  min time  |  avg time  |  max time  |%varavg| %total
---------------------------------------------------------------
Pair    | 687.28     | 757.43     | 819.94     | 162.1 | 60.56
Bond    | 3.2702     | 3.3552     | 3.3954     |   1.9 |  0.27
Kspace  | 293.46     | 356.39     | 426.5      | 237.0 | 28.49
Neigh   | 20.46      | 20.473     | 20.486     |   0.2 |  1.64
Comm    | 36.406     | 36.802     | 37.409     |   5.0 |  2.94
Output  | 0.10111    | 0.10136    | 0.10161    |   0.0 |  0.01
Modify  | 71.12      | 71.378     | 71.558     |   1.4 |  5.71
Other   |            | 4.867      |            |       |  0.39

Nlocal:    131 ave 146 max 120 min
Histogram: 2 2 0 1 3 0 2 0 1 1
Nghost:    4215.75 ave 4293 max 4142 min
Histogram: 1 0 2 2 2 1 2 0 0 2
Neighs:    47725.2 ave 52995 max 42414 min
Histogram: 1 0 2 2 1 1 2 1 1 1

Total # of neighbors = 572703
Ave neighs/atom = 364.315
Ave special neighs/atom = 1.9084
Neighbor list builds = 10049
Dangerous builds = 0
PPPM initialization ...
  extracting TIP4P info from pair style
  using 12-bit tables for long-range coulomb (../kspace.cpp:321)
  G vector (1/distance) = 0.310402
  grid = 24 24 24
  stencil order = 5
  estimated absolute RMS force accuracy = 0.003659
  estimated relative force accuracy = 1.1019e-05
  using double precision FFTs
  3d grid and FFT values/proc = 5415 1152
Setting up Verlet run ...
  Unit style    : real
  Current step  : 2000000
  Time step     : 1
Per MPI rank memory allocation (min/avg/max) = 14.31 | 14.31 | 14.32 Mbytes
Step Density Temp Press TotEng 
 2000000    1.1527874    293.41217    89.658677   -8393.0779 
 2100000    1.1527874    298.77027    170.94384   -8405.0015 
 2200000    1.1527874    307.70687    1140.9102   -8424.8833 
 2300000    1.1527874    301.81537    228.16583    -8391.104 
 2400000    1.1527874    291.37799    212.16332   -8417.4886 
 2500000    1.1527874    301.90661    475.43958   -8424.0477 
 2600000    1.1527874    291.52587    303.46581   -8386.8153 
 2700000    1.1527874    296.50253   -406.71429   -8434.4696 
 2800000    1.1527874     298.3227    296.06818   -8302.8022 
 2900000    1.1527874    295.91916    627.76778   -8369.4589 
 3000000    1.1527874    295.23469    121.04485   -8417.3733 
Loop time of 5007.24 on 12 procs for 1000000 steps with 1572 atoms

Performance: 17.255 ns/day, 1.391 hours/ns, 199.711 timesteps/s
93.1% CPU use with 12 MPI tasks x no OpenMP threads

MPI task timing breakdown:
Section |  min time  |  avg time  |  max time  |%varavg| %total
---------------------------------------------------------------
Pair    | 2769.9     | 3032.4     | 3278.1     | 324.5 | 60.56
Bond    | 13.129     | 13.44      | 13.619     |   3.2 |  0.27
Kspace  | 1179.3     | 1426.4     | 1688.7     | 474.6 | 28.49
Neigh   | 81.977     | 82.044     | 82.104     |   0.3 |  1.64
Comm    | 145.76     | 147.43     | 149.74     |  10.0 |  2.94
Output  | 0.33673    | 0.33792    | 0.3391     |   0.1 |  0.01
Modify  | 284.52     | 285.64     | 286.28     |   2.8 |  5.70
Other   |            | 19.53      |            |       |  0.39

Nlocal:    131 ave 138 max 126 min
Histogram: 2 3 1 1 0 1 1 1 0 2
Nghost:    4189.17 ave 4261 max 4129 min
Histogram: 2 1 0 3 2 0 1 0 2 1
Neighs:    47714.1 ave 51823 max 42944 min
Histogram: 1 2 0 1 1 2 1 1 1 2

Total # of neighbors = 572569
Ave neighs/atom = 364.23
Ave special neighs/atom = 1.9084
Neighbor list builds = 40339
Dangerous builds = 0
PPPM initialization ...
  extracting TIP4P info from pair style
  using 12-bit tables for long-range coulomb (../kspace.cpp:321)
  G vector (1/distance) = 0.310402
  grid = 24 24 24
  stencil order = 5
  estimated absolute RMS force accuracy = 0.003659
  estimated relative force accuracy = 1.1019e-05
  using double precision FFTs
  3d grid and FFT values/proc = 5415 1152
Setting up Verlet run ...
  Unit style    : real
  Current step  : 3000000
  Time step     : 1
Per MPI rank memory allocation (min/avg/max) = 14.31 | 14.31 | 14.32 Mbytes
Step Density Temp Press TotEng 
 3000000    1.1527874    295.23469    120.81357   -8417.3733 
 3100000    1.1527874    301.45714   -204.53289   -8373.1724 
 3200000    1.1527874    303.76954   -103.43537   -8361.9637 
 3300000    1.1527874    297.14544    173.99869   -8441.2818 
 3400000    1.1527874    299.84689   -1332.5199   -8432.4671 
 3500000    1.1527874    303.52064   -88.911903   -8449.6188 
 3600000    1.1527874    301.41653    513.67739   -8439.2728 
 3700000    1.1527874    306.32104    -106.5709   -8434.3963 
 3800000    1.1527874    303.96691    263.05394    -8380.035 
 3900000    1.1527874    294.75843    585.29815   -8464.3923 
 4000000    1.1527874    301.70393   -50.689828    -8340.744 
Loop time of 4999.77 on 12 procs for 1000000 steps with 1572 atoms

Performance: 17.281 ns/day, 1.389 hours/ns, 200.009 timesteps/s
93.3% CPU use with 12 MPI tasks x no OpenMP threads

MPI task timing breakdown:
Section |  min time  |  avg time  |  max time  |%varavg| %total
---------------------------------------------------------------
Pair    | 2828       | 3033.4     | 3288.4     | 289.7 | 60.67
Bond    | 13.2       | 13.461     | 13.592     |   3.4 |  0.27
Kspace  | 1161.9     | 1418.2     | 1624.7     | 425.4 | 28.36
Neigh   | 81.912     | 81.971     | 82.019     |   0.3 |  1.64
Comm    | 145.51     | 147.21     | 149.39     |   9.6 |  2.94
Output  | 0.33612    | 0.3373     | 0.33842    |   0.1 |  0.01
Modify  | 284.7      | 285.7      | 286.29     |   2.7 |  5.71
Other   |            | 19.51      |            |       |  0.39

Nlocal:    131 ave 144 max 116 min
Histogram: 1 0 1 2 1 1 4 0 0 2
Nghost:    4199.58 ave 4321 max 4078 min
Histogram: 2 0 2 0 2 1 1 2 1 1
Neighs:    47717.9 ave 52927 max 42624 min
Histogram: 1 1 0 2 3 1 1 2 0 1

Total # of neighbors = 572615
Ave neighs/atom = 364.259
Ave special neighs/atom = 1.9084
Neighbor list builds = 40321
Dangerous builds = 0
PPPM initialization ...
  extracting TIP4P info from pair style
  using 12-bit tables for long-range coulomb (../kspace.cpp:321)
  G vector (1/distance) = 0.310402
  grid = 24 24 24
  stencil order = 5
  estimated absolute RMS force accuracy = 0.003659
  estimated relative force accuracy = 1.1019e-05
  using double precision FFTs
  3d grid and FFT values/proc = 5415 1152
Setting up Verlet run ...
  Unit style    : real
  Current step  : 4000000
  Time step     : 1
Per MPI rank memory allocation (min/avg/max) = 14.31 | 14.31 | 14.32 Mbytes
Step Density Temp Press TotEng 
 4000000    1.1527874    301.70393   -50.888778    -8340.744 
 4100000    1.1527874    303.41407   -43.044522   -8323.2818 
 4200000    1.1527874    285.64804    308.83995   -8438.9101 
 4300000    1.1527874    294.08935    811.78025   -8399.4431 
 4400000    1.1527874    296.54436   -388.94693   -8448.4256 
 4500000    1.1527874    284.02098    203.66703   -8422.5905 
 4600000    1.1527874    286.67919    7.9214907   -8472.5911 
 4700000    1.1527874    300.13012    235.26464   -8315.3175 
 4800000    1.1527874     303.9664   -592.46967   -8354.7929 
 4900000    1.1527874    282.46895   -677.56257   -8463.7298 
 5000000    1.1527874    298.77194    911.29878   -8430.9389 
Loop time of 5006.93 on 12 procs for 1000000 steps with 1572 atoms

Performance: 17.256 ns/day, 1.391 hours/ns, 199.723 timesteps/s
93.2% CPU use with 12 MPI tasks x no OpenMP threads

MPI task timing breakdown:
Section |  min time  |  avg time  |  max time  |%varavg| %total
---------------------------------------------------------------
Pair    | 2823       | 3037.5     | 3261.9     | 289.6 | 60.67
Bond    | 13.214     | 13.475     | 13.612     |   3.4 |  0.27
Kspace  | 1196       | 1420.8     | 1636.6     | 424.7 | 28.38
Neigh   | 81.842     | 81.91      | 81.976     |   0.4 |  1.64
Comm    | 145.51     | 147.2      | 149.41     |   9.4 |  2.94
Output  | 0.33519    | 0.33571    | 0.33652    |   0.1 |  0.01
Modify  | 285.04     | 286.13     | 286.76     |   2.8 |  5.71
Other   |            | 19.55      |            |       |  0.39

Nlocal:    131 ave 147 max 117 min
Histogram: 2 1 1 1 0 2 2 2 0 1
Nghost:    4191.67 ave 4242 max 4132 min
Histogram: 1 2 0 0 1 3 1 0 2 2
Neighs:    47681.8 ave 54563 max 39880 min
Histogram: 1 1 1 1 1 1 3 1 0 2

Total # of neighbors = 572181
Ave neighs/atom = 363.983
Ave special neighs/atom = 1.9084
Neighbor list builds = 40238
Dangerous builds = 0
PPPM initialization ...
  extracting TIP4P info from pair style
  using 12-bit tables for long-range coulomb (../kspace.cpp:321)
  G vector (1/distance) = 0.310402
  grid = 24 24 24
  stencil order = 5
  estimated absolute RMS force accuracy = 0.003659
  estimated relative force accuracy = 1.1019e-05
  using double precision FFTs
  3d grid and FFT values/proc = 5415 1152
Setting up Verlet run ...
  Unit style    : real
  Current step  : 5000000
  Time step     : 1
Per MPI rank memory allocation (min/avg/max) = 14.31 | 14.31 | 14.32 Mbytes
Step Density Temp Press TotEng 
 5000000    1.1527874    298.77194    911.52912   -8430.9389 
 5100000    1.1527874    305.09805   -538.52747   -8362.5861 
 5200000    1.1527874    304.04019   -476.05756   -8440.0929 
 5300000    1.1527874    316.79528   -169.67084   -8414.7247 
 5400000    1.1527874     297.3153   -157.30868   -8428.8116 
 5500000    1.1527874    295.47506    315.84369   -8354.8698 
 5600000    1.1527874    301.55188   -480.13816   -8403.6033 
 5700000    1.1527874    303.04858    217.06133   -8407.7884 
 5800000    1.1527874    310.28732   -210.89302   -8372.4707 
 5900000    1.1527874    299.61052    743.58587   -8431.2742 
 6000000    1.1527874    311.32937    617.68947   -8326.6264 
Loop time of 4984.9 on 12 procs for 1000000 steps with 1572 atoms

Performance: 17.332 ns/day, 1.385 hours/ns, 200.606 timesteps/s
93.3% CPU use with 12 MPI tasks x no OpenMP threads

MPI task timing breakdown:
Section |  min time  |  avg time  |  max time  |%varavg| %total
---------------------------------------------------------------
Pair    | 2801.2     | 3032.3     | 3244.4     | 289.8 | 60.83
Bond    | 13.169     | 13.452     | 13.558     |   3.2 |  0.27
Kspace  | 1192.2     | 1405       | 1637.2     | 427.0 | 28.18
Neigh   | 81.632     | 81.691     | 81.746     |   0.3 |  1.64
Comm    | 145.91     | 147.34     | 149.68     |   9.9 |  2.96
Output  | 0.33746    | 0.33823    | 0.33963    |   0.1 |  0.01
Modify  | 284.25     | 285.34     | 286.05     |   2.8 |  5.72
Other   |            | 19.48      |            |       |  0.39

Nlocal:    131 ave 144 max 121 min
Histogram: 2 0 1 5 0 0 1 1 1 1
Nghost:    4179.33 ave 4245 max 4120 min
Histogram: 2 1 1 1 1 2 0 2 1 1
Neighs:    47689.7 ave 55237 max 43787 min
Histogram: 4 1 1 2 1 1 0 1 0 1

Total # of neighbors = 572276
Ave neighs/atom = 364.043
Ave special neighs/atom = 1.9084
Neighbor list builds = 40203
Dangerous builds = 0
PPPM initialization ...
  extracting TIP4P info from pair style
  using 12-bit tables for long-range coulomb (../kspace.cpp:321)
  G vector (1/distance) = 0.310402
  grid = 24 24 24
  stencil order = 5
  estimated absolute RMS force accuracy = 0.003659
  estimated relative force accuracy = 1.1019e-05
  using double precision FFTs
  3d grid and FFT values/proc = 5415 1152
Setting up Verlet run ...
  Unit style    : real
  Current step  : 6000000
  Time step     : 1
Per MPI rank memory allocation (min/avg/max) = 14.31 | 14.31 | 14.32 Mbytes
Step Density Temp Press TotEng 
 6000000    1.1527874    311.32937    617.73594   -8326.6264 
 6100000    1.1527874    300.99149   -450.21134   -8345.9591 
 6200000    1.1527874    294.62272   -942.82454   -8397.3887 
 6300000    1.1527874    301.48264    681.23009   -8389.1898 
 6400000    1.1527874    310.32374   -1422.4524    -8411.001 
 6500000    1.1527874    304.30177   -412.88244   -8434.2159 
 6600000    1.1527874    307.27751    139.74578   -8384.0779 
 6700000    1.1527874    292.50655   -78.930248   -8426.7713 
 6800000    1.1527874    305.51078   -1109.7565   -8405.3576 
 6900000    1.1527874    292.94719   -299.04653   -8396.4031 
 7000000    1.1527874    291.04801    995.17864   -8406.4987 
Loop time of 5009.54 on 12 procs for 1000000 steps with 1572 atoms

Performance: 17.247 ns/day, 1.392 hours/ns, 199.619 timesteps/s
93.2% CPU use with 12 MPI tasks x no OpenMP threads

MPI task timing breakdown:
Section |  min time  |  avg time  |  max time  |%varavg| %total
---------------------------------------------------------------
Pair    | 2808.9     | 3043.7     | 3298.2     | 312.2 | 60.76
Bond    | 13.174     | 13.425     | 13.588     |   3.9 |  0.27
Kspace  | 1162.2     | 1418       | 1653.7     | 458.8 | 28.31
Neigh   | 81.567     | 81.621     | 81.673     |   0.3 |  1.63
Comm    | 145.93     | 147.4      | 149.62     |   9.7 |  2.94
Output  | 0.33636    | 0.33697    | 0.33843    |   0.1 |  0.01
Modify  | 284.53     | 285.64     | 286.38     |   2.9 |  5.70
Other   |            | 19.49      |            |       |  0.39

Nlocal:    131 ave 139 max 123 min
Histogram: 2 1 1 1 1 1 1 1 1 2
Nghost:    4186.33 ave 4250 max 4123 min
Histogram: 1 1 2 1 1 3 0 1 0 2
Neighs:    47684.7 ave 53580 max 42930 min
Histogram: 1 1 1 3 2 1 1 0 1 1

Total # of neighbors = 572216
Ave neighs/atom = 364.005
Ave special neighs/atom = 1.9084
Neighbor list builds = 40196
Dangerous builds = 0
PPPM initialization ...
  extracting TIP4P info from pair style
  using 12-bit tables for long-range coulomb (../kspace.cpp:321)
  G vector (1/distance) = 0.310402
  grid = 24 24 24
  stencil order = 5
  estimated absolute RMS force accuracy = 0.003659
  estimated relative force accuracy = 1.1019e-05
  using double precision FFTs
  3d grid and FFT values/proc = 5415 1152
Setting up Verlet run ...
  Unit style    : real
  Current step  : 7000000
  Time step     : 1
Per MPI rank memory allocation (min/avg/max) = 14.31 | 14.31 | 14.32 Mbytes
Step Density Temp Press TotEng 
 7000000    1.1527874    291.04801    995.22428   -8406.4987 
 7100000    1.1527874    287.66284     634.4195    -8391.973 
 7200000    1.1527874    302.81226   -629.54965   -8364.3256 
 7300000    1.1527874    302.24758   -70.212635   -8320.2199 
 7400000    1.1527874    300.31197    257.80681   -8439.5041 
 7500000    1.1527874    291.19061    672.03739   -8394.9957 
 7600000    1.1527874    297.97265    550.14196    -8398.132 
 7700000    1.1527874    298.05326    598.95331    -8401.748 
 7800000    1.1527874    298.23583    551.07954   -8342.0288 
 7900000    1.1527874    307.00466    374.96174   -8347.5498 
 8000000    1.1527874    298.21717    132.04353   -8440.1776 
Loop time of 5003.02 on 12 procs for 1000000 steps with 1572 atoms

Performance: 17.270 ns/day, 1.390 hours/ns, 199.879 timesteps/s
93.1% CPU use with 12 MPI tasks x no OpenMP threads

MPI task timing breakdown:
Section |  min time  |  avg time  |  max time  |%varavg| %total
---------------------------------------------------------------
Pair    | 2783.9     | 3025.5     | 3263       | 313.3 | 60.47
Bond    | 13.247     | 13.449     | 13.6       |   3.0 |  0.27
Kspace  | 1191       | 1429       | 1671.5     | 457.1 | 28.56
Neigh   | 82.05      | 82.107     | 82.17      |   0.4 |  1.64
Comm    | 145.87     | 147.46     | 149.83     |   9.8 |  2.95
Output  | 0.33578    | 0.33638    | 0.33768    |   0.1 |  0.01
Modify  | 284.61     | 285.74     | 286.49     |   2.9 |  5.71
Other   |            | 19.46      |            |       |  0.39

Nlocal:    131 ave 137 max 120 min
Histogram: 2 0 0 0 1 1 1 1 4 2
Nghost:    4218.5 ave 4298 max 4152 min
Histogram: 1 1 3 1 2 0 0 2 0 2
Neighs:    47680.9 ave 52954 max 42613 min
Histogram: 1 0 1 3 3 1 1 0 0 2

Total # of neighbors = 572171
Ave neighs/atom = 363.976
Ave special neighs/atom = 1.9084
Neighbor list builds = 40292
Dangerous builds = 0
PPPM initialization ...
  extracting TIP4P info from pair style
  using 12-bit tables for long-range coulomb (../kspace.cpp:321)
  G vector (1/distance) = 0.310402
  grid = 24 24 24
  stencil order = 5
  estimated absolute RMS force accuracy = 0.003659
  estimated relative force accuracy = 1.1019e-05
  using double precision FFTs
  3d grid and FFT values/proc = 5415 1152
Setting up Verlet run ...
  Unit style    : real
  Current step  : 8000000
  Time step     : 1
Per MPI rank memory allocation (min/avg/max) = 14.31 | 14.31 | 14.32 Mbytes
Step Density Temp Press TotEng 
 8000000    1.1527874    298.21717    132.06568   -8440.1776 
 8100000    1.1527874    293.46304    63.010105   -8484.4107 
 8200000    1.1527874    301.72112   -57.811471   -8391.7775 
 8300000    1.1527874    317.70206   -104.45004   -8359.5912 
 8400000    1.1527874    298.27862   -232.22651    -8467.157 
 8500000    1.1527874    293.08799   -790.13026    -8423.597 
 8600000    1.1527874    299.99699   -778.18315   -8438.7381 
 8700000    1.1527874    309.32377    -312.0197   -8381.2286 
 8800000    1.1527874    287.26007   -215.08102     -8423.82 
 8900000    1.1527874    297.76055   -256.33143   -8406.8392 
 9000000    1.1527874    315.49242   -421.29759   -8377.2992 
Loop time of 4995.03 on 12 procs for 1000000 steps with 1572 atoms

Performance: 17.297 ns/day, 1.388 hours/ns, 200.199 timesteps/s
93.3% CPU use with 12 MPI tasks x no OpenMP threads

MPI task timing breakdown:
Section |  min time  |  avg time  |  max time  |%varavg| %total
---------------------------------------------------------------
Pair    | 2822.4     | 3032.8     | 3262.7     | 286.3 | 60.72
Bond    | 13.202     | 13.469     | 13.643     |   3.4 |  0.27
Kspace  | 1182.4     | 1413.9     | 1625.2     | 420.7 | 28.31
Neigh   | 81.93      | 81.992     | 82.041     |   0.3 |  1.64
Comm    | 145.7      | 147.38     | 149.71     |   9.6 |  2.95
Output  | 0.33686    | 0.33767    | 0.33838    |   0.1 |  0.01
Modify  | 284.6      | 285.65     | 286.22     |   2.7 |  5.72
Other   |            | 19.53      |            |       |  0.39

Nlocal:    131 ave 143 max 123 min
Histogram: 2 2 2 0 1 1 0 2 1 1
Nghost:    4226.25 ave 4292 max 4189 min
Histogram: 2 1 2 2 3 0 1 0 0 1
Neighs:    47704.5 ave 53372 max 42222 min
Histogram: 2 0 2 1 1 2 0 1 2 1

Total # of neighbors = 572454
Ave neighs/atom = 364.156
Ave special neighs/atom = 1.9084
Neighbor list builds = 40274
Dangerous builds = 0
PPPM initialization ...
  extracting TIP4P info from pair style
  using 12-bit tables for long-range coulomb (../kspace.cpp:321)
  G vector (1/distance) = 0.310402
  grid = 24 24 24
  stencil order = 5
  estimated absolute RMS force accuracy = 0.003659
  estimated relative force accuracy = 1.1019e-05
  using double precision FFTs
  3d grid and FFT values/proc = 5415 1152
Setting up Verlet run ...
  Unit style    : real
  Current step  : 9000000
  Time step     : 1
Per MPI rank memory allocation (min/avg/max) = 14.31 | 14.31 | 14.32 Mbytes
Step Density Temp Press TotEng 
 9000000    1.1527874    315.49242   -421.25803   -8377.2992 
 9100000    1.1527874    298.17297    783.21862   -8472.1596 
 9200000    1.1527874    301.99272   -58.687911   -8432.7406 
 9300000    1.1527874    291.91847   -466.45946   -8388.9009 
 9400000    1.1527874    301.64224    754.07267   -8399.5699 
 9500000    1.1527874    292.27204    992.90498    -8506.526 
 9600000    1.1527874    297.82456   -276.76981   -8319.0051 
 9700000    1.1527874     302.9243    709.49026   -8360.7287 
 9800000    1.1527874    297.28099   -306.17528   -8385.1021 
 9900000    1.1527874    304.69392    542.25977   -8399.3682 
10000000    1.1527874     289.3475   -157.87027   -8410.9656 
Loop time of 5015.13 on 12 procs for 1000000 steps with 1572 atoms

Performance: 17.228 ns/day, 1.393 hours/ns, 199.397 timesteps/s
93.1% CPU use with 12 MPI tasks x no OpenMP threads

MPI task timing breakdown:
Section |  min time  |  avg time  |  max time  |%varavg| %total
---------------------------------------------------------------
Pair    | 2773.4     | 3034.7     | 3300.8     | 326.0 | 60.51
Bond    | 13.176     | 13.412     | 13.534     |   3.4 |  0.27
Kspace  | 1166.4     | 1432.2     | 1693.2     | 475.7 | 28.56
Neigh   | 82.054     | 82.1       | 82.158     |   0.3 |  1.64
Comm    | 146.05     | 147.36     | 149.74     |   9.5 |  2.94
Output  | 0.33875    | 0.33932    | 0.33992    |   0.1 |  0.01
Modify  | 284.41     | 285.54     | 286.23     |   2.9 |  5.69
Other   |            | 19.47      |            |       |  0.39

Nlocal:    131 ave 146 max 118 min
Histogram: 2 0 1 1 2 2 2 1 0 1
Nghost:    4244.83 ave 4328 max 4171 min
Histogram: 1 2 0 2 1 4 0 0 1 1
Neighs:    47669.2 ave 54690 max 40208 min
Histogram: 1 0 0 3 3 1 1 1 0 2

Total # of neighbors = 572030
Ave neighs/atom = 363.887
Ave special neighs/atom = 1.9084
Neighbor list builds = 40290
Dangerous builds = 0
PPPM initialization ...
  extracting TIP4P info from pair style
  using 12-bit tables for long-range coulomb (../kspace.cpp:321)
  G vector (1/distance) = 0.310402
  grid = 24 24 24
  stencil order = 5
  estimated absolute RMS force accuracy = 0.003659
  estimated relative force accuracy = 1.1019e-05
  using double precision FFTs
  3d grid and FFT values/proc = 5415 1152
Setting up Verlet run ...
  Unit style    : real
  Current step  : 10000000
  Time step     : 1
Per MPI rank memory allocation (min/avg/max) = 14.31 | 14.31 | 14.32 Mbytes
Step Density Temp Press TotEng 
10000000    1.1527874     289.3475   -157.83576   -8410.9656 
10100000    1.1527874    294.67244    722.71735   -8376.5966 
10200000    1.1527874    291.38996    209.56836   -8446.2438 
10300000    1.1527874    301.65524    403.65371   -8420.9064 
10400000    1.1527874    298.76075    40.398643   -8310.1372 
10500000    1.1527874    291.50159   -411.99424   -8385.0081 
10600000    1.1527874     300.8959    11.630639   -8369.9638 
10700000    1.1527874    319.71591     294.2117   -8343.9838 
10800000    1.1527874    297.98548    401.51674   -8354.6492 
10900000    1.1527874    293.81868   -337.87756   -8406.0646 
11000000    1.1527874    295.88508    741.62369   -8416.0384 
11100000    1.1527874    294.07801    389.10514   -8375.9628 
11200000    1.1527874    297.42962   -89.238097    -8426.192 
11300000    1.1527874    290.87897    171.06853   -8372.0625 
11400000    1.1527874    299.68987   -1184.2904   -8439.0336 
11500000    1.1527874    298.95798    384.84215   -8406.9741 
11600000    1.1527874    304.59999   -541.67585   -8467.2179 
11700000    1.1527874     306.3246    579.70082   -8441.7587 
11800000    1.1527874    316.81223   -374.30033   -8357.1786 
11900000    1.1527874    295.91367   -93.905449   -8458.4743 
12000000    1.1527874    303.54262    578.29675   -8397.1697 
12100000    1.1527874    299.59801    200.41666   -8503.2194 
12200000    1.1527874    293.11656    93.840651   -8348.3193 
12300000    1.1527874    293.70687    -291.6958   -8446.8748 
12400000    1.1527874    284.98099   -25.624598   -8401.2529 
12500000    1.1527874    295.55203     266.7078   -8467.0608 
Loop time of 12589.1 on 12 procs for 2500000 steps with 1572 atoms

Performance: 17.158 ns/day, 1.399 hours/ns, 198.585 timesteps/s
92.9% CPU use with 12 MPI tasks x no OpenMP threads

MPI task timing breakdown:
Section |  min time  |  avg time  |  max time  |%varavg| %total
---------------------------------------------------------------
Pair    | 7001.7     | 7595.9     | 8273.9     | 526.6 | 60.34
Bond    | 33.001     | 33.56      | 33.897     |   4.9 |  0.27
Kspace  | 2942.5     | 3621.9     | 4218.8     | 764.5 | 28.77
Neigh   | 205.09     | 205.25     | 205.42     |   0.6 |  1.63
Comm    | 364.62     | 368.62     | 374.32     |  15.0 |  2.93
Output  | 0.8407     | 0.84192    | 0.84352    |   0.1 |  0.01
Modify  | 711.33     | 714.08     | 715.77     |   4.3 |  5.67
Other   |            | 48.97      |            |       |  0.39

Nlocal:    131 ave 139 max 123 min
Histogram: 2 1 0 2 1 0 2 0 3 1
Nghost:    4208.08 ave 4282 max 4121 min
Histogram: 2 1 0 1 1 1 1 3 0 2
Neighs:    47670.2 ave 53615 max 42682 min
Histogram: 1 1 3 1 1 1 1 2 0 1

Total # of neighbors = 572043
Ave neighs/atom = 363.895
Ave special neighs/atom = 1.9084
Neighbor list builds = 100724
Dangerous builds = 0
PPPM initialization ...
  extracting TIP4P info from pair style
  using 12-bit tables for long-range coulomb (../kspace.cpp:321)
  G vector (1/distance) = 0.310402
  grid = 24 24 24
  stencil order = 5
  estimated absolute RMS force accuracy = 0.003659
  estimated relative force accuracy = 1.1019e-05
  using double precision FFTs
  3d grid and FFT values/proc = 5415 1152
Setting up Verlet run ...
  Unit style    : real
  Current step  : 12500000
  Time step     : 1
Per MPI rank memory allocation (min/avg/max) = 14.31 | 14.31 | 14.32 Mbytes
Step Density Temp Press TotEng 
12500000    1.1527874    295.55203    266.93034   -8467.0608 
12600000    1.1527874    295.37046    528.19652   -8442.8848 
12700000    1.1527874    296.05573   -341.48315   -8331.3145 
12800000    1.1527874    296.17439    804.56179   -8390.4861 
12900000    1.1527874    275.41655    250.02626    -8474.328 
13000000    1.1527874    294.55669   -315.49898   -8391.9721 
13100000    1.1527874    309.03269   -218.47351   -8374.1282 
13200000    1.1527874     288.8123   -456.94343   -8468.9607 
13300000    1.1527874     287.5621    549.27739    -8434.806 
13400000    1.1527874    292.93155    -21.38682   -8432.5812 
13500000    1.1527874    286.49941   -573.28492   -8380.2584 
13600000    1.1527874    297.19279    -47.23493   -8459.6532 
13700000    1.1527874    300.61939   -136.36906   -8394.7928 
13800000    1.1527874    311.60327    22.132545   -8390.1476 
13900000    1.1527874    302.17474    535.79813   -8415.4221 
14000000    1.1527874    313.37608    -98.70546   -8383.1953 
14100000    1.1527874    302.19302    361.55475   -8415.3085 
14200000    1.1527874    285.97626   -825.87493    -8449.903 
14300000    1.1527874    297.18641    123.03006   -8407.7203 
14400000    1.1527874    295.93311   -109.85548   -8398.4493 
14500000    1.1527874    293.39169    981.94903   -8374.2053 
14600000    1.1527874    295.81129   -434.71861    -8446.119 
14700000    1.1527874    306.16587   -254.56421   -8386.5064 
14800000    1.1527874    304.24198    758.72621   -8431.4681 
14900000    1.1527874    286.57427    63.924874    -8482.514 
15000000    1.1527874    294.46096     84.89062   -8446.6143 
Loop time of 12515.4 on 12 procs for 2500000 steps with 1572 atoms

Performance: 17.259 ns/day, 1.391 hours/ns, 199.754 timesteps/s
93.1% CPU use with 12 MPI tasks x no OpenMP threads

MPI task timing breakdown:
Section |  min time  |  avg time  |  max time  |%varavg| %total
---------------------------------------------------------------
Pair    | 6939.7     | 7583.9     | 8140.8     | 502.9 | 60.60
Bond    | 32.989     | 33.593     | 34.031     |   5.6 |  0.27
Kspace  | 3003       | 3561.4     | 4206.7     | 736.1 | 28.46
Neigh   | 204.38     | 204.55     | 204.73     |   0.6 |  1.63
Comm    | 364.42     | 368.36     | 374.23     |  15.5 |  2.94
Output  | 0.84048    | 0.84201    | 0.84585    |   0.1 |  0.01
Modify  | 711.07     | 713.86     | 715.56     |   4.5 |  5.70
Other   |            | 48.84      |            |       |  0.39

Nlocal:    131 ave 150 max 114 min
Histogram: 1 2 0 3 0 1 2 2 0 1
Nghost:    4200.33 ave 4266 max 4122 min
Histogram: 1 1 0 1 1 5 0 0 1 2
Neighs:    47732 ave 53260 max 40414 min
Histogram: 1 1 1 0 2 1 1 1 2 2

Total # of neighbors = 572784
Ave neighs/atom = 364.366
Ave special neighs/atom = 1.9084
Neighbor list builds = 100679
Dangerous builds = 0
PPPM initialization ...
  extracting TIP4P info from pair style
  using 12-bit tables for long-range coulomb (../kspace.cpp:321)
  G vector (1/distance) = 0.310402
  grid = 24 24 24
  stencil order = 5
  estimated absolute RMS force accuracy = 0.003659
  estimated relative force accuracy = 1.1019e-05
  using double precision FFTs
  3d grid and FFT values/proc = 5415 1152
Setting up Verlet run ...
  Unit style    : real
  Current step  : 15000000
  Time step     : 1
Per MPI rank memory allocation (min/avg/max) = 14.31 | 14.31 | 14.32 Mbytes
Step Density Temp Press TotEng 
15000000    1.1527874    294.46096    84.843528   -8446.6143 
15100000    1.1527874    296.03523    20.279335   -8480.1983 
15200000    1.1527874    293.31133   -111.18978   -8446.5706 
15300000    1.1527874    300.45317    22.250321     -8377.47 
15400000    1.1527874    289.81816    556.48359   -8417.3475 
15500000    1.1527874    311.61283    392.06262   -8333.2599 
15600000    1.1527874    304.94985    296.81848   -8384.0134 
15700000    1.1527874    290.84329   -400.03741   -8380.6914 
15800000    1.1527874    298.71145    -640.7156   -8371.8129 
15900000    1.1527874    290.31986    666.79999   -8379.8082 
16000000    1.1527874    300.45448    1085.5917    -8360.663 
16100000    1.1527874    294.68098   -29.229243   -8384.8423 
16200000    1.1527874    297.02316    1007.7703   -8369.2569 
16300000    1.1527874    287.24782    454.49042   -8420.7761 
16400000    1.1527874    309.17951    368.41523   -8387.3603 
16500000    1.1527874     299.1106     212.6814   -8399.5058 
16600000    1.1527874    296.58051    250.57518   -8429.0778 
16700000    1.1527874     304.1903   -965.37269   -8360.6484 
16800000    1.1527874    290.25554    53.424023   -8443.0668 
16900000    1.1527874    301.44404   -26.789956   -8408.9841 
17000000    1.1527874     300.6225    -189.5085   -8315.7073 
17100000    1.1527874    297.19118    495.26887   -8398.1366 
17200000    1.1527874    306.64261   -977.17749   -8354.9432 
17300000    1.1527874    298.45657   -1072.8818   -8439.3468 
17400000    1.1527874    302.15554    281.15721   -8366.1278 
17500000    1.1527874    298.50677    565.06126   -8386.1389 
Loop time of 12476.3 on 12 procs for 2500000 steps with 1572 atoms

Performance: 17.313 ns/day, 1.386 hours/ns, 200.380 timesteps/s
93.3% CPU use with 12 MPI tasks x no OpenMP threads

MPI task timing breakdown:
Section |  min time  |  avg time  |  max time  |%varavg| %total
---------------------------------------------------------------
Pair    | 7016.7     | 7577.7     | 8199       | 461.7 | 60.74
Bond    | 33.055     | 33.645     | 34.058     |   5.6 |  0.27
Kspace  | 2902.7     | 3527.5     | 4087.8     | 678.8 | 28.27
Neigh   | 204.38     | 204.54     | 204.68     |   0.5 |  1.64
Comm    | 364.81     | 368.78     | 374.28     |  14.8 |  2.96
Output  | 0.84185    | 0.84296    | 0.84528    |   0.1 |  0.01
Modify  | 711.56     | 714.25     | 715.91     |   4.4 |  5.72
Other   |            | 48.99      |            |       |  0.39

Nlocal:    131 ave 136 max 121 min
Histogram: 2 0 1 0 0 0 1 0 4 4
Nghost:    4207.83 ave 4258 max 4170 min
Histogram: 3 2 1 0 0 1 1 2 1 1
Neighs:    47717.9 ave 53700 max 42065 min
Histogram: 1 3 1 1 0 2 0 0 1 3

Total # of neighbors = 572615
Ave neighs/atom = 364.259
Ave special neighs/atom = 1.9084
Neighbor list builds = 100666
Dangerous builds = 0
PPPM initialization ...
  extracting TIP4P info from pair style
  using 12-bit tables for long-range coulomb (../kspace.cpp:321)
  G vector (1/distance) = 0.310402
  grid = 24 24 24
  stencil order = 5
  estimated absolute RMS force accuracy = 0.003659
  estimated relative force accuracy = 1.1019e-05
  using double precision FFTs
  3d grid and FFT values/proc = 5415 1152
Setting up Verlet run ...
  Unit style    : real
  Current step  : 17500000
  Time step     : 1
Per MPI rank memory allocation (min/avg/max) = 14.31 | 14.31 | 14.32 Mbytes
Step Density Temp Press TotEng 
17500000    1.1527874    298.50677    565.33484   -8386.1389 
17600000    1.1527874    304.25859   -864.70497   -8458.1772 
17700000    1.1527874    298.06644    253.49998   -8404.0583 
17800000    1.1527874    294.38197   -357.88062   -8391.3233 
17900000    1.1527874    291.36539    428.74257   -8442.5173 
18000000    1.1527874    300.07488   -1265.5699   -8387.8986 
18100000    1.1527874    293.35461    -65.27085   -8461.1858 
18200000    1.1527874    297.41796    460.79641   -8451.6212 
18300000    1.1527874    289.45435   -243.79626   -8410.5671 
18400000    1.1527874    293.48397    689.50262   -8441.0845 
18500000    1.1527874    297.46438     696.8597   -8414.5037 
18600000    1.1527874    309.18244     533.1109   -8384.4485 
18700000    1.1527874    301.00497   -427.76845   -8363.2238 
18800000    1.1527874    298.44233    466.97862   -8412.5414 
18900000    1.1527874    299.10525    302.43851   -8434.9971 
19000000    1.1527874    299.19663    422.90034    -8345.495 
19100000    1.1527874    289.82857   -44.902455   -8445.2587 
19200000    1.1527874    303.93697   -424.87796   -8438.8058 
19300000    1.1527874    305.48851    919.35056   -8387.7667 
19400000    1.1527874    292.90366   -371.07466   -8453.5674 
19500000    1.1527874    288.41616   -895.83063   -8416.9493 
19600000    1.1527874    291.46787   -773.02823   -8419.6863 
19700000    1.1527874    304.91581    579.77041   -8455.2543 
19800000    1.1527874    294.01568   -410.64532   -8442.1928 
19900000    1.1527874    302.89926    113.51975   -8404.6032 
20000000    1.1527874    302.59877   -903.19054   -8364.2574 
Loop time of 12505 on 12 procs for 2500000 steps with 1572 atoms

Performance: 17.273 ns/day, 1.389 hours/ns, 199.919 timesteps/s
93.2% CPU use with 12 MPI tasks x no OpenMP threads

MPI task timing breakdown:
Section |  min time  |  avg time  |  max time  |%varavg| %total
---------------------------------------------------------------
Pair    | 6919.8     | 7579.3     | 8103.9     | 472.4 | 60.61
Bond    | 32.874     | 33.593     | 34.048     |   5.5 |  0.27
Kspace  | 3028.5     | 3554.9     | 4215.5     | 691.8 | 28.43
Neigh   | 205.09     | 205.28     | 205.46     |   0.6 |  1.64
Comm    | 364.08     | 368.27     | 373.89     |  15.4 |  2.94
Output  | 0.83945    | 0.84042    | 0.84248    |   0.1 |  0.01
Modify  | 711.15     | 713.95     | 715.82     |   4.5 |  5.71
Other   |            | 48.91      |            |       |  0.39

Nlocal:    131 ave 148 max 119 min
Histogram: 1 1 2 3 1 2 1 0 0 1
Nghost:    4180.17 ave 4226 max 4131 min
Histogram: 2 0 0 1 1 5 1 0 0 2
Neighs:    47726.2 ave 53118 max 43498 min
Histogram: 2 1 2 1 0 2 0 3 0 1

Total # of neighbors = 572715
Ave neighs/atom = 364.323
Ave special neighs/atom = 1.9084
Neighbor list builds = 100696
Dangerous builds = 0
PPPM initialization ...
  extracting TIP4P info from pair style
  using 12-bit tables for long-range coulomb (../kspace.cpp:321)
  G vector (1/distance) = 0.310402
  grid = 24 24 24
  stencil order = 5
  estimated absolute RMS force accuracy = 0.003659
  estimated relative force accuracy = 1.1019e-05
  using double precision FFTs
  3d grid and FFT values/proc = 5415 1152
Setting up Verlet run ...
  Unit style    : real
  Current step  : 20000000
  Time step     : 1
Per MPI rank memory allocation (min/avg/max) = 14.31 | 14.31 | 14.32 Mbytes
Step Density Temp Press TotEng 
20000000    1.1527874    302.59877   -903.31449   -8364.2574 
20100000    1.1527874    301.03825      275.418   -8387.2404 
20200000    1.1527874    289.10923   -466.50748   -8384.4015 
20300000    1.1527874    290.34184    13.140441   -8493.8802 
20400000    1.1527874    292.40213    274.50181   -8445.7621 
20500000    1.1527874    292.76082    495.55767   -8442.5226 
20600000    1.1527874    310.25808    78.371436   -8332.2918 
20700000    1.1527874    280.29832    3.7729809   -8444.8204 
20800000    1.1527874    300.58697    -190.1203    -8386.568 
20900000    1.1527874    294.61892    270.88813   -8398.5135 
21000000    1.1527874    287.62117   -332.98007   -8452.1022 
21100000    1.1527874    300.27927    315.06919   -8443.7717 
21200000    1.1527874    293.88061    450.07409   -8392.6044 
21300000    1.1527874    302.97118   -553.17847   -8443.4129 
21400000    1.1527874    299.27826     567.9042   -8396.0889 
21500000    1.1527874    290.03488    -1013.898   -8445.3761 
21600000    1.1527874     301.2357    575.92751   -8452.8708 
21700000    1.1527874    293.81211    -163.3633     -8430.33 
21800000    1.1527874    295.85277    -510.6734   -8421.5483 
21900000    1.1527874    297.77943   -366.53939   -8456.7276 
22000000    1.1527874    307.39791    -576.3117   -8452.0701 
22100000    1.1527874    293.48957   -1397.5533   -8386.6946 
22200000    1.1527874    298.75092   -61.835013   -8413.2071 
22300000    1.1527874    311.31348    595.38518    -8417.055 
22400000    1.1527874     287.1912   -198.18808   -8364.5454 
22500000    1.1527874    299.64344    276.10408    -8412.066 
22600000    1.1527874    297.21652    157.16322    -8405.686 
22700000    1.1527874    302.70304   -136.81507     -8448.76 
22800000    1.1527874    299.15268     136.6604   -8377.3701 
22900000    1.1527874    286.53113   -342.97018   -8468.2562 
23000000    1.1527874    285.30819    150.15833   -8471.9716 
23100000    1.1527874     303.0056    325.19625   -8393.7221 
23200000    1.1527874     301.7649     1411.703   -8451.1067 
23300000    1.1527874    304.60538   -928.40449   -8404.7868 
23400000    1.1527874    300.26037   -401.93994   -8416.8534 
23500000    1.1527874    297.91537     341.0035   -8405.3473 
23600000    1.1527874    306.64216   -266.80909   -8423.2812 
23700000    1.1527874    300.64907   -224.56458   -8411.0069 
23800000    1.1527874    304.07468    -747.1726   -8448.9086 
23900000    1.1527874    305.59004   -322.19837   -8390.6011 
24000000    1.1527874    293.64434    403.58192   -8343.7815 
24100000    1.1527874    292.06088   -124.82476   -8415.9883 
24200000    1.1527874    291.78835   -652.33462   -8388.0374 
24300000    1.1527874    289.55593    363.58759   -8397.1427 
24400000    1.1527874    289.48938   -800.68222   -8420.4082 
24500000    1.1527874    296.33305    977.01519    -8402.478 
24600000    1.1527874    288.18651    446.00396   -8371.0112 
24700000    1.1527874    304.35926     -724.013    -8362.197 
24800000    1.1527874    287.14155   -659.83304   -8491.6597 
24900000    1.1527874    291.27514   -306.50759   -8451.3571 
25000000    1.1527874    294.71127   -993.15452   -8429.8306 
Loop time of 25075.3 on 12 procs for 5000000 steps with 1572 atoms

Performance: 17.228 ns/day, 1.393 hours/ns, 199.400 timesteps/s
93.1% CPU use with 12 MPI tasks x no OpenMP threads

MPI task timing breakdown:
Section |  min time  |  avg time  |  max time  |%varavg| %total
---------------------------------------------------------------
Pair    | 14045      | 15206      | 16465      | 686.1 | 60.64
Bond    | 66.297     | 67.253     | 67.955     |   7.2 |  0.27
Kspace  | 5863.7     | 7129.1     | 8295.8     |1005.3 | 28.43
Neigh   | 408.89     | 409.25     | 409.58     |   0.8 |  1.63
Comm    | 728.09     | 736.2      | 747        |  21.6 |  2.94
Output  | 1.6902     | 1.6938     | 1.6996     |   0.2 |  0.01
Modify  | 1422       | 1427.3     | 1430.9     |   6.3 |  5.69
Other   |            | 98.04      |            |       |  0.39

Nlocal:    131 ave 141 max 119 min
Histogram: 1 0 2 1 1 3 0 0 1 3
Nghost:    4207.5 ave 4301 max 4131 min
Histogram: 3 1 0 1 0 3 2 0 1 1
Neighs:    47755.3 ave 51881 max 42411 min
Histogram: 1 1 0 1 1 1 4 1 1 1

Total # of neighbors = 573064
Ave neighs/atom = 364.545
Ave special neighs/atom = 1.9084
Neighbor list builds = 201415
Dangerous builds = 0
PPPM initialization ...
  extracting TIP4P info from pair style
  using 12-bit tables for long-range coulomb (../kspace.cpp:321)
  G vector (1/distance) = 0.310402
  grid = 24 24 24
  stencil order = 5
  estimated absolute RMS force accuracy = 0.003659
  estimated relative force accuracy = 1.1019e-05
  using double precision FFTs
  3d grid and FFT values/proc = 5415 1152
Setting up Verlet run ...
  Unit style    : real
  Current step  : 25000000
  Time step     : 1
Per MPI rank memory allocation (min/avg/max) = 14.31 | 14.31 | 14.32 Mbytes
Step Density Temp Press TotEng 
25000000    1.1527874    294.71127   -993.30736   -8429.8306 
25100000    1.1527874    284.66138   -370.60151   -8417.7778 
25200000    1.1527874    297.00208   -302.72188   -8370.6603 
25300000    1.1527874    302.36567   -39.893365   -8397.6674 
25400000    1.1527874    290.71514   -177.09605   -8415.8052 
25500000    1.1527874    300.08148    997.14705   -8402.1987 
25600000    1.1527874    314.04385    194.42915   -8394.1386 
25700000    1.1527874    301.75215   -470.28095   -8367.0128 
25800000    1.1527874    304.98743   -62.982362   -8383.1273 
25900000    1.1527874    279.80577    629.99432   -8448.6026 
26000000    1.1527874    291.77545   -153.29268   -8416.1374 
26100000    1.1527874    300.29111   -31.487938   -8353.8459 
26200000    1.1527874    288.42162   -1197.6611   -8443.3289 
26300000    1.1527874    305.03649    38.423824   -8366.1288 
26400000    1.1527874    305.95068   -194.11843   -8374.1283 
26500000    1.1527874    303.31363   -10.506636   -8413.6668 
26600000    1.1527874    295.37516   -143.14435   -8413.2614 
26700000    1.1527874    299.70193   -25.090899   -8327.2995 
26800000    1.1527874    305.73452    932.40189   -8401.0314 
26900000    1.1527874    289.59964    777.35737   -8497.0391 
27000000    1.1527874    308.49688    143.02692   -8373.5689 
27100000    1.1527874    295.00923   -55.469997   -8450.2582 
27200000    1.1527874     300.2579    -584.3605   -8449.4762 
27300000    1.1527874    291.63168    41.476928   -8410.2796 
27400000    1.1527874    309.29922    255.00128   -8407.8439 
27500000    1.1527874    312.27571    -625.4495   -8384.1277 
27600000    1.1527874    294.67092   -189.09944   -8369.1567 
27700000    1.1527874    301.84999     716.5953   -8412.4007 
27800000    1.1527874    296.22068    439.08502   -8421.8049 
27900000    1.1527874     294.7688    871.33412   -8366.7224 
28000000    1.1527874    296.44493    263.45553   -8414.7555 
28100000    1.1527874      307.825   -54.295812   -8374.7518 
28200000    1.1527874    292.88611    11.204965   -8427.6105 
28300000    1.1527874    295.63738   -979.77276   -8395.1382 
28400000    1.1527874     298.6984   -405.54094   -8394.5853 
28500000    1.1527874    293.34574   -706.57001   -8371.8601 
28600000    1.1527874    291.56686   -504.91008   -8413.4989 
28700000    1.1527874    308.24026    297.86233   -8403.8711 
28800000    1.1527874    301.35867    109.96932    -8401.787 
28900000    1.1527874    296.96398   -1325.3979   -8390.9144 
29000000    1.1527874    301.17233   -1171.4299   -8438.9315 
29100000    1.1527874    298.17382   -85.684868   -8360.8628 
29200000    1.1527874    299.46879   -140.05018   -8477.4099 
29300000    1.1527874    292.20878    290.60219   -8410.8541 
29400000    1.1527874    315.88963    224.16854   -8373.3973 
29500000    1.1527874    301.99421   -389.14777   -8404.7557 
29600000    1.1527874    284.04591    597.18529   -8445.6714 
29700000    1.1527874    294.55643   -317.09361   -8438.7653 
29800000    1.1527874    300.87119   -356.48292    -8389.184 
29900000    1.1527874    300.58975    187.80679   -8406.8052 
30000000    1.1527874    301.49613    93.529647   -8358.9057 
Loop time of 24932.1 on 12 procs for 5000000 steps with 1572 atoms

Performance: 17.327 ns/day, 1.385 hours/ns, 200.544 timesteps/s
93.3% CPU use with 12 MPI tasks x no OpenMP threads

MPI task timing breakdown:
Section |  min time  |  avg time  |  max time  |%varavg| %total
---------------------------------------------------------------
Pair    | 14003      | 15129      | 16259      | 648.7 | 60.68
Bond    | 66.43      | 67.258     | 67.904     |   6.6 |  0.27
Kspace  | 5933.3     | 7061.2     | 8192.4     | 952.0 | 28.32
Neigh   | 409.56     | 409.83     | 410.16     |   0.8 |  1.64
Comm    | 729.15     | 736.95     | 747.84     |  21.2 |  2.96
Output  | 1.6832     | 1.6873     | 1.6907     |   0.1 |  0.01
Modify  | 1422.6     | 1428.1     | 1431.9     |   6.4 |  5.73
Other   |            | 97.79      |            |       |  0.39

Nlocal:    131 ave 146 max 121 min
Histogram: 2 0 2 3 0 2 2 0 0 1
Nghost:    4197.25 ave 4245 max 4121 min
Histogram: 1 0 2 0 0 1 3 2 1 2
Neighs:    47702.8 ave 53713 max 44413 min
Histogram: 4 0 1 2 2 1 1 0 0 1

Total # of neighbors = 572434
Ave neighs/atom = 364.144
Ave special neighs/atom = 1.9084
Neighbor list builds = 201431
Dangerous builds = 0
PPPM initialization ...
  extracting TIP4P info from pair style
  using 12-bit tables for long-range coulomb (../kspace.cpp:321)
  G vector (1/distance) = 0.310402
  grid = 24 24 24
  stencil order = 5
  estimated absolute RMS force accuracy = 0.003659
  estimated relative force accuracy = 1.1019e-05
  using double precision FFTs
  3d grid and FFT values/proc = 5415 1152
Setting up Verlet run ...
  Unit style    : real
  Current step  : 30000000
  Time step     : 1
Per MPI rank memory allocation (min/avg/max) = 14.31 | 14.31 | 14.32 Mbytes
Step Density Temp Press TotEng 
30000000    1.1527874    301.49613    93.496534   -8358.9057 
30100000    1.1527874    308.27336   -257.66496   -8380.8015 
30200000    1.1527874    296.08651   -101.60343   -8390.5154 
30300000    1.1527874    295.83167    47.132335   -8442.9701 
30400000    1.1527874    307.02768   -787.22774   -8399.1456 
30500000    1.1527874    309.13352   -234.00516   -8322.2028 
30600000    1.1527874    290.61078   -1333.4925   -8390.5246 
30700000    1.1527874    287.69098    916.34092   -8454.8644 
30800000    1.1527874    301.78995    171.48923   -8362.3485 
30900000    1.1527874    305.52852    523.53033   -8353.5893 
31000000    1.1527874    305.99103   -89.132227   -8377.4597 
31100000    1.1527874     292.6867    520.89109   -8446.4979 
31200000    1.1527874    288.73326    248.90218   -8441.4797 
31300000    1.1527874    291.59758    166.18491   -8417.8179 
31400000    1.1527874    289.22697   -523.20358   -8511.3246 
31500000    1.1527874    288.07127    362.32014   -8373.8277 
31600000    1.1527874    295.16765    933.29931   -8464.7254 
31700000    1.1527874    298.67321   -115.84291   -8403.2714 
31800000    1.1527874    292.61307    714.20665   -8454.2644 
31900000    1.1527874    305.52298    838.61824   -8383.0721 
32000000    1.1527874    298.12523    82.985644   -8386.5859 
32100000    1.1527874    296.22853    66.119223   -8386.2915 
32200000    1.1527874    293.07247    -146.8253   -8397.9573 
32300000    1.1527874     291.8975   -427.72939   -8403.3272 
32400000    1.1527874    307.91916    381.04851   -8270.2723 
32500000    1.1527874    298.78503   -264.47328   -8368.7234 
32600000    1.1527874    301.32851    311.98889   -8394.5012 
32700000    1.1527874    316.25257    472.94338   -8341.3051 
32800000    1.1527874    292.61339    859.60223   -8327.4219 
32900000    1.1527874    304.13412    248.47869   -8380.7171 
33000000    1.1527874    302.81208    -621.1454   -8469.1459 
33100000    1.1527874    302.64977    247.89677   -8354.2646 
33200000    1.1527874    307.71553     101.6704    -8435.412 
33300000    1.1527874    286.44815   -435.99653   -8437.7249 
33400000    1.1527874    303.80847    604.47798   -8394.1637 
33500000    1.1527874    295.78144   -543.90579   -8379.3274 
33600000    1.1527874     294.9159   -677.25906   -8475.0566 
33700000    1.1527874    305.57282    274.16919    -8391.174 
33800000    1.1527874    292.54767    501.43985   -8425.0313 
33900000    1.1527874    289.27132     181.0349    -8456.317 
34000000    1.1527874    299.44179   -705.52728   -8425.6113 
34100000    1.1527874    301.25196   -1252.4222   -8449.6744 
34200000    1.1527874    297.58383    1017.0345    -8375.789 
34300000    1.1527874    289.89794   -198.78139   -8464.5282 
34400000    1.1527874    297.85715    699.46015   -8461.6075 
34500000    1.1527874     293.9652   -151.73052   -8420.8308 
34600000    1.1527874    299.80086     716.7778   -8409.2499 
34700000    1.1527874    283.42911   -728.71225   -8402.9055 
34800000    1.1527874    288.76776    162.74373   -8447.3119 
34900000    1.1527874    281.48348   -581.58529   -8437.5614 
35000000    1.1527874    307.11378    923.13491    -8305.708 
Loop time of 24978 on 12 procs for 5000000 steps with 1572 atoms

Performance: 17.295 ns/day, 1.388 hours/ns, 200.176 timesteps/s
93.3% CPU use with 12 MPI tasks x no OpenMP threads

MPI task timing breakdown:
Section |  min time  |  avg time  |  max time  |%varavg| %total
---------------------------------------------------------------
Pair    | 13982      | 15175      | 16373      | 642.1 | 60.75
Bond    | 65.744     | 67.137     | 67.888     |   7.6 |  0.27
Kspace  | 5856.9     | 7062.6     | 8260.9     | 944.7 | 28.28
Neigh   | 408.84     | 409.16     | 409.44     |   0.7 |  1.64
Comm    | 728.77     | 736.53     | 748.14     |  22.0 |  2.95
Output  | 1.686      | 1.6876     | 1.6923     |   0.1 |  0.01
Modify  | 1422.8     | 1428       | 1431.3     |   6.1 |  5.72
Other   |            | 97.87      |            |       |  0.39

Nlocal:    131 ave 142 max 114 min
Histogram: 1 0 0 1 1 2 3 2 1 1
Nghost:    4160.5 ave 4223 max 4077 min
Histogram: 1 0 1 2 1 0 2 2 2 1
Neighs:    47710.7 ave 53259 max 38810 min
Histogram: 1 0 1 1 1 0 2 2 3 1

Total # of neighbors = 572528
Ave neighs/atom = 364.204
Ave special neighs/atom = 1.9084
Neighbor list builds = 201502
Dangerous builds = 0
