1572
Atoms. Timestep: 0
Ow 9.31433 11.441 10.8021
H 9.29446 10.6046 10.3371
H 10.0962 11.882 10.4696
Ow 17.8932 3.27968 3.77133
H 18.8489 3.30608 3.72448
H 17.6023 3.85473 3.06358
Ow 21.0699 19.5177 22.4004
H 20.5126 19.5848 21.6251
H 20.529 19.063 23.0462
Ow 17.8358 1.18911 1.85955
H 17.6773 1.92147 2.45516
H 17.0237 1.10621 1.35968
Ow 12.8179 3.4746 12.8433
H 12.2709 4.22927 12.6252
H 12.1945 2.77706 13.046
Ow 16.7262 16.8526 5.62308
H 17.3158 16.5232 4.94474
H 15.9074 17.0344 5.16178
Ow 0.943098 4.1917 2.54953
H 1.0711 3.50697 3.20603
H 25.7714 4.63669 2.82033
Ow 3.57432 19.3075 25.3163
H 3.47978 18.4624 24.8769
H 2.70306 19.4953 25.6654
Ow 25.4498 16.889 8.70952
H 25.4393 17.661 8.14358
H 0.644313 16.4514 8.50317
Ow 9.49265 3.78171 12.1302
H 9.08705 3.10346 11.5901
H 8.7673 4.156 12.6302
Ow 19.7988 3.22856 11.6101
H 20.7047 3.32982 11.3182
H 19.8142 2.45774 12.1774
Ow 12.3962 6.65903 14.2567
H 12.7966 6.89559 13.4201
H 11.4858 6.45903 14.039
Ow 15.3409 17.4983 0.949773
H 14.9081 16.898 0.342736
H 14.7628 18.2603 0.986818
Ow 23.0013 0.775955 16.8998
H 22.2344 0.9288 17.4518
H 22.9956 1.50106 16.275
Ow 17.5589 5.08638 13.6023
H 17.0918 4.38121 13.1542
H 17.9471 4.66701 14.3702
Ow 23.3967 13.7362 13.4298
H 23.9402 12.9917 13.1717
H 23.0588 13.4987 14.2933
Ow 25.7404 20.3547 16.4842
H 25.1263 19.969 15.8594
H 0.50927 19.6035 16.9221
Ow 8.48609 5.28271 8.14123
H 7.68253 5.78157 7.99408
H 9.18257 5.84325 7.79927
Ow 23.2296 0.389334 12.5903
H 23.1817 25.0867 12.3862
H 22.3864 0.589773 12.9966
Ow 19.3657 21.4565 0.16939
H 18.4203 21.4519 25.6511
H 19.6945 22.1566 25.2368
Ow 25.3269 4.83787 17.9664
H 0.424844 5.37758 18.2715
H 25.1851 4.20555 18.6708
Ow 9.14863 23.6415 18.8331
H 9.47769 22.7444 18.7767
H 8.50539 23.706 18.1272
Ow 23.3996 15.0515 9.35706
H 24.0054 15.6429 8.91046
H 23.1093 14.4456 8.67528
Ow 24.1728 13.7232 1.98471
H 25.0335 13.5781 2.3777
H 23.8144 12.8444 1.86052
Ow 12.4196 5.57498 4.87495
H 12.9211 4.81317 4.58441
H 13.0715 6.2695 4.96964
Ow 20.2756 22.7937 8.36431
H 19.5974 23.3507 8.74638
H 20.1718 21.9513 8.80685
Ow 15.5009 5.62553 6.8048
H 16.0616 6.28974 6.40396
H 14.6629 6.06823 6.93932
Ow 2.78605 16.2409 8.41577
H 2.72069 16.9352 7.76015
H 3.40001 16.5819 9.06614
Ow 8.9498 9.07209 2.01264
H 9.19429 9.94516 1.70573
H 9.45045 8.4738 1.45799
Ow 24.9805 6.93424 11.1771
H 24.9419 7.75176 10.6807
H 25.3166 6.2905 10.5535
Ow 4.22378 24.285 15.9937
H 4.1207 24.6212 15.1034
H 3.90985 23.382 15.9471
Ow 11.1504 8.33061 15.9594
H 11.7351 7.62242 15.6894
H 10.2838 7.92577 15.9955
Ow 12.0914 23.3794 12.4456
H 12.2514 23.2696 11.5083
H 12.7169 22.7897 12.8665
Ow 3.39647 13.5053 9.3784
H 3.17786 14.4241 9.22223
H 3.93302 13.2551 8.62626
Ow 4.98895 5.11378 3.25718
H 4.53794 4.43838 2.75058
H 5.91673 4.89045 3.1824
Ow 4.38182 19.941 10.4371
H 3.65158 20.5595 10.4159
H 4.05835 19.2055 10.9573
Ow 20.0855 6.09281 22.3515
H 19.5357 5.33223 22.1631
H 19.5359 6.84586 22.1345
Ow 16.6099 13.8722 1.36815
H 15.9962 13.4937 1.99768
H 16.9087 14.6822 1.78156
Ow 13.648 16.8636 8.63233
H 13.535 17.8136 8.66349
H 13.8203 16.6725 7.71036
Ow 7.64968 13.7538 8.70543
H 7.37833 14.3034 9.44062
H 8.38547 14.2238 8.31313
Ow 7.38409 8.91902 5.16004
H 7.60994 9.75068 4.74344
H 6.49866 8.72819 4.85048
Ow 24.6421 3.8499 6.94022
H 24.5734 3.01433 6.47834
H 25.3506 4.31338 6.49361
Ow 5.78886 17.9867 22.8003
H 6.54097 17.4178 22.6364
H 5.90823 18.7215 22.1985
Ow 14.5188 2.22585 19.3339
H 13.6838 2.24944 19.8015
H 14.9637 3.03171 19.5965
Ow 20.7063 16.8621 12.435
H 20.4202 17.7011 12.7961
H 20.2077 16.2077 12.9242
Ow 24.6276 1.39366 0.591307
H 25.3923 1.96714 0.540605
H 24.7341 0.786341 25.4905
Ow 2.41157 21.6128 19.0877
H 3.33438 21.8145 18.9329
H 1.95711 21.966 18.3229
Ow 9.04563 13.0982 21.5038
H 9.23472 12.9445 22.4295
H 8.39104 13.7966 21.5054
Ow 11.4037 4.46211 15.7324
H 12.2927 4.78822 15.5922
H 11.4512 3.53243 15.5096
Ow 2.31995 3.5351 21.0747
H 2.30324 2.90619 20.3533
H 1.73157 4.2365 20.7953
Ow 24.6069 18.9903 23.4807
H 25.4722 18.7133 23.1794
H 24.3678 19.7092 22.8958
Ow 15.3092 13.028 4.12167
H 14.6151 13.503 4.57863
H 14.8767 12.2489 3.77195
Ow 24.8589 6.97983 24.7196
H 24.2133 6.49209 24.2082
H 25.1519 7.67762 24.1336
Ow 23.8401 16.5416 12.735
H 23.6634 15.6009 12.7386
H 23.0109 16.9406 12.4715
Ow 16.0874 4.55876 19.7766
H 16.873 4.42005 20.3055
H 15.5264 5.11179 20.3204
Ow 15.3759 19.4057 18.9048
H 15.0312 19.168 18.0441
H 14.6 19.4919 19.4587
Ow 14.0431 22.2144 17.1698
H 14.1627 21.3069 16.8896
H 13.9168 22.1584 18.117
Ow 25.342 21.3244 3.28663
H 25.6847 22.2181 3.28999
H 0.366062 20.8178 2.80705
Ow 16.8368 20.539 1.42697
H 16.6953 21.2579 2.04279
H 16.3252 20.7801 0.654786
Ow 1.99265 22.8076 0.681972
H 1.94389 21.8622 0.824188
H 1.7123 23.1901 1.51342
Ow 11.5579 2.69925 24.8832
H 10.6507 2.99318 24.8011
H 11.5199 1.75602 24.7247
Ow 6.95715 18.8168 15.1167
H 6.07322 19.1109 15.3368
H 6.83232 18.2005 14.3951
Ow 10.1942 12.1145 17.2744
H 9.63655 11.7125 16.6084
H 9.68278 12.8549 17.6007
Ow 17.928 24.6969 15.7839
H 18.3831 23.983 15.3374
H 17.4036 25.1125 15.0994
Ow 6.04382 0.165937 22.6998
H 6.69536 0.583455 23.2632
H 6.55929 25.3231 22.0473
Ow 2.37454 3.54985 16.9874
H 2.90951 3.65626 16.2008
H 2.35528 4.42074 17.3842
Ow 10.4629 6.77439 7.01987
H 10.8492 6.40785 6.22446
H 10.7457 7.68883 7.02465
Ow 13.6317 9.68608 20.3998
H 13.2766 9.98672 19.5633
H 12.9247 9.17203 20.7898
Ow 5.50729 7.18903 22.6083
H 6.39072 7.50268 22.8017
H 5.18285 6.85485 23.4445
Ow 15.5237 16.6539 20.8262
H 15.6768 16.909 19.9164
H 15.6066 17.4689 21.3212
Ow 25.6986 13.8575 10.5451
H 25.125 14.6049 10.3758
H 0.874441 14.246 10.8824
Ow 21.5945 3.1909 15.5507
H 21.2596 2.5489 14.9247
H 20.8885 3.83122 15.6387
Ow 12.8549 19.3484 20.5796
H 13.5431 19.0885 21.1919
H 12.6531 18.5496 20.0923
Ow 10.2382 5.18016 1.73639
H 10.2889 5.58956 0.872647
H 10.4919 4.26959 1.58563
Ow 5.81395 2.70174 14.7761
H 6.30841 3.18401 14.1134
H 5.53289 1.90219 14.3312
Ow 8.67777 2.39657 18.5557
H 8.85859 3.23422 18.1292
H 9.10221 1.74596 17.9964
Ow 14.2469 22.6478 20.4335
H 14.9306 22.1799 20.9131
H 14.119 23.4579 20.9271
Ow 5.82255 2.70935 17.7931
H 6.73871 2.5347 18.0085
H 5.7771 2.61307 16.8419
Ow 20.4759 10.8681 13.3888
H 21.3368 10.6869 13.0117
H 20.6636 11.2008 14.2665
Ow 9.8213 11.918 1.77647
H 10.6208 11.7849 2.28575
H 10.1208 12.3166 0.959378
Ow 5.69518 15.3454 1.63295
H 6.62918 15.3865 1.42759
H 5.66315 15.2288 2.58248
Ow 7.61648 20.0318 7.71497
H 8.43364 20.4022 7.38141
H 7.20806 20.7491 8.19965
Ow 22.192 6.36375 13.903
H 22.5711 6.49594 14.7719
H 22.8325 5.82233 13.4415
Ow 18.6246 11.118 24.2487
H 19.2488 10.4602 23.9426
H 18.6423 11.7976 23.5749
Ow 13.8438 23.077 24.3104
H 13.4062 22.2364 24.4453
H 14.7773 22.8654 24.3169
Ow 9.86417 23.3751 22.5183
H 10.5565 22.839 22.1315
H 9.23754 22.7418 22.8683
Ow 5.27796 17.5565 9.1066
H 5.3579 17.6825 8.16111
H 4.87206 18.3636 9.42282
Ow 0.835072 5.43265 5.62562
H 1.34623 6.21391 5.83675
H 1.46724 4.83146 5.23172
Ow 21.1696 7.33006 2.23725
H 21.5908 7.55962 3.06555
H 20.2492 7.56057 2.3641
Ow 5.80716 21.7072 12.8575
H 5.42425 21.1014 12.223
H 6.56166 22.0838 12.4046
Ow 21.6006 4.87693 0.648751
H 21.5575 5.69454 1.14462
H 21.3745 4.19829 1.28478
Ow 12.978 19.1014 11.7038
H 12.4966 18.3107 11.9472
H 12.7848 19.7249 12.404
Ow 19.4122 25.3748 3.33774
H 18.8616 0.22941 2.72369
H 19.5584 24.53 2.9122
Ow 3.03558 3.66357 4.96781
H 2.5394 3.21002 5.64922
H 3.58545 4.28514 5.44481
Ow 7.26313 2.83172 8.48401
H 7.7078 3.65221 8.27117
H 7.72292 2.50296 9.2565
Ow 2.99864 12.2164 13.6786
H 3.18329 12.4809 14.5799
H 2.06118 12.3758 13.5691
Ow 4.41113 19.2916 15.8964
H 4.70609 19.0001 16.7591
H 4.14056 20.2 16.0296
Ow 23.6088 7.21248 8.0511
H 23.3973 6.30509 8.27052
H 22.8721 7.71978 8.3919
Ow 14.3873 16.0332 11.9318
H 13.6263 15.9021 12.4974
H 14.019 16.1396 11.0547
Ow 4.16022 1.58936 3.67896
H 3.78849 2.37829 4.07346
H 5.0979 1.64851 3.86194
Ow 24.3343 15.908 0.496104
H 23.5171 16.0043 25.6385
H 24.1738 15.1744 1.08972
Ow 3.8565 21.776 4.41448
H 4.11164 22.1065 5.27579
H 4.21026 22.4163 3.79721
Ow 2.25576 1.64959 19.0869
H 2.20481 2.29471 18.3816
H 2.22276 0.803292 18.6409
Ow 14.521 16.1018 24.0435
H 14.583 16.9915 23.6961
H 13.5822 15.9161 24.0617
Ow 20.0407 14.4072 2.52401
H 19.5707 14.4968 3.35303
H 20.3216 15.2968 2.30999
Ow 25.2142 10.0093 17.9191
H 0.410981 10.42 17.6704
H 25.3311 9.77113 18.8387
Ow 12.0797 9.99867 3.5816
H 12.2436 9.8225 4.50806
H 12.8997 10.3732 3.25978
Ow 5.23624 2.06521 6.92253
H 5.64254 2.11165 6.05709
H 5.8814 2.45602 7.51182
Ow 17.8874 14.128 18.0915
H 16.9398 14.1069 17.9576
H 18.2526 13.7831 17.2767
Ow 5.8669 11.9148 17.7323
H 5.26189 11.5769 18.3926
H 5.71266 11.3669 16.9627
Ow 16.7856 19.9029 14.4929
H 16.6309 20.7542 14.0836
H 15.9898 19.7304 14.996
Ow 21.1102 12.6604 4.36416
H 21.4618 13.3144 4.96818
H 20.7694 13.1708 3.6296
Ow 0.251428 19.3947 7.18713
H 24.9718 19.6683 7.29415
H 0.725951 20.2061 7.00591
Ow 20.9853 16.8934 2.24755
H 21.6777 16.8777 2.90831
H 20.4113 17.6099 2.51839
Ow 22.1738 21.677 23.4823
H 21.8006 20.8921 23.0814
H 22.7941 21.3436 24.1306
Ow 5.33147 1.20827 1.05914
H 4.68762 1.51764 1.6963
H 6.04875 0.863352 1.5909
Ow 0.281688 19.8083 19.8919
H 25.5901 19.2047 19.2228
H 0.677412 20.5257 19.3971
Ow 2.73123 16.9601 18.7333
H 2.81654 16.874 19.6828
H 2.70226 16.0587 18.4123
Ow 16.3461 22.3785 3.32913
H 15.855 21.8695 3.97409
H 16.7954 23.0488 3.84403
Ow 8.88875 24.5099 0.787944
H 8.06035 24.6243 1.25364
H 8.90045 25.2161 25.7732
Ow 2.62726 21.6091 16.101
H 2.53459 22.0569 15.2601
H 1.81002 21.1217 16.2047
Ow 25.015 0.172901 19.9013
H 24.1033 25.527 19.9914
H 25.247 25.5773 19.0008
Ow 9.77468 11.5524 6.68916
H 10.4134 10.9152 6.3695
H 10.0772 12.391 6.34056
Ow 11.6694 8.13483 21.3611
H 10.9449 7.60834 21.0233
H 11.7243 7.9012 22.2877
Ow 10.3757 21.2285 11.7478
H 10.9698 21.9513 11.9496
H 9.5082 21.6321 11.718
Ow 2.31744 4.69057 23.6987
H 2.17581 4.16788 22.9094
H 1.44832 5.01995 23.9276
Ow 1.94829 17.6265 5.91635
H 1.26428 18.1554 6.32698
H 2.32208 18.197 5.24475
Ow 12.8808 20.3549 24.2918
H 13.4567 19.7279 23.8543
H 12.8684 20.072 25.2062
Ow 3.29821 17.7531 11.8298
H 2.84594 18.3613 12.4145
H 4.05241 17.4502 12.3354
Ow 2.17245 18.3078 14.4418
H 2.15952 17.3782 14.6694
H 2.85442 18.682 14.9996
Ow 11.8245 2.66799 1.92033
H 11.7452 2.58656 0.969898
H 11.431 1.86572 2.26356
Ow 5.37223 25.2418 19.5558
H 6.07153 24.8648 20.0897
H 5.43499 0.553276 19.709
Ow 2.96695 24.796 18.2566
H 3.73103 25.2346 18.6308
H 3.28202 24.4276 17.4312
Ow 0.942878 6.99497 15.7389
H 1.32611 6.72232 16.5726
H 0.738265 7.92209 15.8607
Ow 24.6554 9.01065 13.7096
H 24.2261 9.0145 14.5651
H 24.0665 9.5095 13.1434
Ow 17.9949 3.06409 17.6143
H 17.4713 2.5847 16.9722
H 17.3659 3.6289 18.0633
Ow 16.0659 13.0716 23.4814
H 15.9327 12.1238 23.4856
H 15.5404 13.3911 24.215
Ow 22.9425 19.0876 0.823427
H 23.315 19.178 25.5777
H 21.9969 19.0505 0.679876
Ow 7.02271 24.2094 17.1123
H 7.40942 24.2083 16.2366
H 6.1809 24.6515 17.0023
Ow 16.6632 25.2999 23.9591
H 16.3184 25.4209 23.0744
H 17.4893 0.15209 23.963
Ow 1.25154 6.6096 13.0235
H 0.582278 6.80037 12.3663
H 0.90642 6.98516 13.8335
Ow 0.603774 11.299 25.1376
H 1.5146 11.4612 24.892
H 0.375022 10.4858 24.6874
Ow 13.4965 21.2097 13.7081
H 14.2657 21.7779 13.7501
H 13.6178 20.5881 14.4258
Ow 4.29543 1.89249 24.1944
H 4.55411 2.81298 24.2394
H 4.39451 1.57134 25.0907
Ow 12.5704 0.451137 12.5911
H 12.4179 25.1419 12.5002
H 13.0644 0.690971 11.807
Ow 4.73899 12.8584 11.6971
H 4.19269 13.1797 10.9798
H 4.19478 12.9611 12.4778
Ow 0.676251 5.35726 9.61413
H 0.906619 5.95319 8.90136
H 1.51119 5.15247 10.0351
Ow 7.90671 12.8597 12.7119
H 8.30525 12.1916 12.1543
H 7.21093 13.2375 12.1739
Ow 5.09042 13.4507 7.38726
H 5.90138 13.7377 7.80702
H 5.04869 13.9558 6.57526
Ow 3.24311 4.2447 0.768839
H 2.50297 4.21562 1.37513
H 2.8412 4.30568 25.5336
Ow 17.101 7.99778 12.8787
H 18.0454 8.07253 13.0153
H 17.0147 7.50213 12.0644
Ow 1.53607 18.4036 22.4457
H 1.23188 18.8543 21.6579
H 2.36973 18.009 22.1896
Ow 11.6692 12.5069 9.87554
H 12.1559 12.308 9.07566
H 12.3116 12.4078 10.5782
Ow 6.37612 21.0534 1.35274
H 5.76628 21.6899 0.979728
H 6.57263 20.4573 0.630048
Ow 21.6199 13.2679 25.456
H 21.8048 13.2195 0.762562
H 22.4241 12.9614 25.0368
Ow 19.8365 13.4344 23.0987
H 20.1509 13.8768 22.3103
H 20.5959 13.4129 23.6809
Ow 20.524 18.9513 25.1643
H 20.0422 18.3526 25.7351
H 20.1218 19.806 25.319
Ow 3.27993 25.385 7.17823
H 3.42417 25.2673 6.23931
H 3.89491 0.442276 7.43101
Ow 24.8989 22.4452 9.28949
H 24.9262 21.5874 9.71324
H 24.3613 22.3104 8.50908
Ow 9.72197 4.0546 4.52477
H 9.14668 4.73916 4.18325
H 10.6034 4.4187 4.44246
Ow 5.36219 18.2584 18.6727
H 4.68835 17.6411 18.9573
H 5.47911 18.8468 19.4186
Ow 15.1777 10.7877 18.2798
H 14.2617 10.6497 18.0386
H 15.5326 9.90541 18.3889
Ow 7.85684 8.61552 8.11419
H 7.18537 7.97865 8.35865
H 7.80031 8.66963 7.16019
Ow 16.5672 1.43511 21.1303
H 16.9641 2.29761 21.2519
H 15.8974 1.57145 20.4602
Ow 4.7754 5.19958 19.0632
H 5.61344 5.59862 19.297
H 5.01069 4.45117 18.5148
Ow 16.6815 24.7021 5.28074
H 15.9427 25.1638 4.88424
H 17.4408 25.2506 5.0841
Ow 5.6482 10.6505 10.7574
H 5.85828 10.0575 11.4787
H 5.3092 11.4373 11.1844
Ow 12.7524 14.0649 17.8992
H 12.7664 14.2304 16.9566
H 12.6296 14.9287 18.2928
Ow 15.689 3.59915 25.2186
H 15.8702 4.01086 0.432155
H 15.5016 2.68513 25.4323
Ow 18.6317 8.34713 2.76847
H 18.9333 9.21905 2.51344
H 17.892 8.1696 2.18753
Ow 9.32848 5.66863 23.0413
H 8.9355 5.27969 23.8227
H 9.03892 6.58086 23.0558
Ow 7.29467 4.22844 21.3201
H 7.99378 3.61044 21.1067
H 7.6024 4.67612 22.1082
Ow 2.16387 23.8367 20.9882
H 2.80357 23.5958 20.3182
H 1.32281 23.8278 20.5313
Ow 11.8763 16.8724 13.4123
H 11.9421 16.011 13.8245
H 10.9573 16.9456 13.1548
Ow 0.517879 1.28186 22.4674
H 0.250274 0.938275 21.615
H 0.168085 0.654144 23.0997
Ow 19.0474 14.3524 12.6876
H 19.395 14.2679 13.5754
H 19.7941 14.1653 12.1187
Ow 11.5395 21.6434 20.9749
H 12.1271 20.8878 20.9736
H 12.0786 22.3672 20.6561
Ow 11.7542 15.0022 23.3272
H 12.1733 14.9864 22.4667
H 10.951 14.4945 23.2122
Ow 6.08754 11.3836 14.984
H 5.31349 10.8604 14.7756
H 6.26409 11.8798 14.1847
Ow 16.33 14.326 7.08146
H 15.3938 14.2005 6.92644
H 16.56 15.0916 6.55486
Ow 10.0248 6.04824 10.68
H 10.9438 6.25515 10.8496
H 9.82747 5.32585 11.2762
Ow 24.9897 18.1739 14.6401
H 0.259504 18.0152 14.9213
H 24.723 17.3574 14.2176
Ow 24.4538 1.60533 5.5297
H 23.6859 1.43883 4.98306
H 25.1921 1.57812 4.92109
Ow 3.65529 16.904 21.52
H 4.431 17.3378 21.8754
H 3.76451 15.9835 21.7588
Ow 13.1797 4.73798 25.2751
H 12.623 3.97597 25.115
H 14.0701 4.42054 25.1247
Ow 13.0254 25.1595 5.33399
H 12.1354 24.8172 5.41747
H 13.3211 24.8526 4.47691
Ow 7.22618 18.7817 25.0069
H 6.83564 18.4391 24.203
H 7.609 18.015 25.4334
Ow 1.87788 7.76305 20.5701
H 1.44067 8.53512 20.9293
H 1.46205 7.02372 21.0137
Ow 22.664 4.68436 8.38755
H 21.9434 4.54606 7.77279
H 23.4423 4.38826 7.91558
Ow 13.5513 23.8408 2.77348
H 13.1621 23.0623 2.375
H 14.495 23.6864 2.72966
Ow 24.4266 2.91133 19.5984
H 24.2552 3.02529 20.5332
H 24.7375 2.00944 19.5197
Ow 7.71408 10.7689 24.8122
H 7.86725 10.0053 24.2558
H 8.50612 11.2979 24.7171
Ow 24.4378 24.8045 7.18871
H 24.5902 25.62 6.7112
H 23.7577 24.3558 6.68633
Ow 22.806 10.2053 12.1102
H 22.8202 10.8038 11.3633
H 22.4531 9.38872 11.7568
Ow 12.1872 8.29659 24.3732
H 12.5697 9.17133 24.4422
H 12.9383 7.70367 24.3973
Ow 20.5207 11.1885 10.5433
H 20.6616 11.9785 11.065
H 20.062 10.5901 11.133
Ow 23.5976 11.8378 9.87588
H 23.1442 12.4616 9.30875
H 24.5177 12.0976 9.83101
Ow 16.7231 19.5117 9.96039
H 16.9563 20.4395 9.99298
H 17.4131 19.1092 9.43297
Ow 15.0228 10.3156 2.87006
H 14.9944 9.37198 3.02833
H 15.4203 10.4017 2.00358
Ow 17.6101 21.1322 18.4524
H 17.9626 21.3997 19.3012
H 16.874 20.5595 18.668
Ow 6.08567 17.6312 4.312
H 5.95172 16.7392 4.63254
H 5.6379 18.1856 4.95101
Ow 13.202 25.1449 0.297917
H 13.4012 24.4346 25.3194
H 12.8706 24.7039 1.08011
Ow 19.3226 10.543 4.82808
H 20.1404 11.0396 4.85858
H 19.4756 9.79327 5.40314
Ow 25.7512 7.34973 1.6721
H 25.2972 7.06264 0.879788
H 25.4202 6.77298 2.36062
Ow 23.0079 22.3285 1.5217
H 22.106 22.6473 1.55394
H 22.9829 21.4906 1.98382
Ow 1.43755 13.704 2.86723
H 1.48525 13.9671 3.78634
H 1.48829 12.7484 2.88815
Ow 22.1126 8.76304 25.5793
H 21.6533 8.34728 0.67761
H 22.9015 8.23426 25.4597
Ow 5.88514 23.3762 24.0225
H 5.91971 24.304 23.7897
H 5.11189 23.0431 23.5671
Ow 17.0898 7.43135 4.79669
H 17.7364 7.52465 4.09711
H 17.602 7.17869 5.56481
Ow 25.6314 17.8584 11.2887
H 25.0215 17.3376 11.8113
H 25.4619 17.5915 10.3853
Ow 8.8352 24.0913 15.2324
H 8.78847 23.1368 15.2869
H 8.53494 24.296 14.3468
Ow 14.1474 9.76697 15.5085
H 14.8423 10.4239 15.5512
H 13.3412 10.2757 15.4222
Ow 19.7295 19.4053 13.1258
H 20.5211 19.9187 13.2876
H 19.1277 19.6659 13.823
Ow 24.4268 3.14446 15.8587
H 23.86 3.53405 15.193
H 24.587 3.85304 16.482
Ow 3.30472 8.04125 9.20343
H 2.81865 7.95474 8.38339
H 4.21419 7.8641 8.96317
Ow 19.1949 4.56804 15.719
H 19.0406 3.95662 16.4391
H 19.5481 5.35134 16.1407
Ow 11.9803 11.3901 15.1672
H 12.0807 12.2526 14.7645
H 11.3961 11.539 15.9107
Ow 1.14293 12.6387 6.55183
H 0.306029 12.8454 6.13579
H 1.75255 13.2874 6.20004
Ow 23.6387 24.0413 3.82125
H 24.5778 24.2041 3.90936
H 23.5618 23.4986 3.03652
Ow 6.98285 23.0711 5.00091
H 7.83349 23.3633 5.32847
H 7.06648 22.1202 4.93061
Ow 10.3911 19.5738 9.47938
H 10.2048 20.0271 10.3016
H 11.0732 20.1012 9.06377
Ow 13.9299 16.7308 4.46157
H 13.7825 15.8547 4.81781
H 13.3153 16.7993 3.73093
Ow 16.7353 2.21306 6.22916
H 17.0354 2.83281 5.56427
H 16.0117 2.66188 6.66637
Ow 12.0945 21.7138 1.89474
H 11.6113 22.0844 1.1562
H 11.5274 21.8626 2.65142
Ow 24.2935 15.2178 23.2673
H 24.1744 14.3084 23.5413
H 25.1159 15.4862 23.6772
Ow 20.645 9.34708 23.1456
H 21.1879 9.14775 23.9084
H 21.0876 8.91334 22.4161
Ow 11.3551 20.797 18.0368
H 10.9106 19.9529 18.1149
H 11.4351 21.1104 18.9377
Ow 20.0694 21.4722 16.6086
H 19.7453 21.9255 15.8303
H 19.2796 21.1652 17.0538
Ow 11.4364 15.2016 9.71154
H 12.1402 15.5809 9.18518
H 11.655 14.2715 9.77006
Ow 4.19691 9.00943 18.9162
H 4.98058 8.4671 19.0055
H 3.50897 8.51165 19.358
Ow 22.3107 19.5918 16.8833
H 21.5704 20.0976 16.5482
H 22.1128 18.6872 16.6406
Ow 9.87765 18.078 2.1052
H 9.32954 17.638 1.45543
H 9.45535 17.8888 2.94311
Ow 21.8818 3.17122 18.47
H 22.6927 2.91182 18.9075
H 22.1308 3.28902 17.5533
Ow 21.7978 23.6217 14.5451
H 21.565 24.5479 14.48
H 21.7657 23.3021 13.6434
Ow 16.7826 22.5013 24.6823
H 16.6567 22.1814 23.7889
H 16.8833 23.4483 24.586
Ow 15.5436 1.00703 0.270974
H 15.9777 0.449909 25.2562
H 14.6579 0.650512 0.338891
Ow 24.4923 9.65486 3.53367
H 24.7166 9.55916 4.4593
H 24.9624 8.94388 3.0981
Ow 24.1749 20.9088 21.3977
H 24.8459 20.7035 20.7467
H 24.1944 21.8631 21.4697
Ow 18.8786 15.9016 9.15759
H 19.6761 16.246 9.55953
H 18.2815 15.7601 9.89219
Ow 9.94544 22.2978 7.35636
H 10.5616 22.2916 8.08886
H 10.2003 23.0588 6.83477
Ow 23.918 1.22118 10.1849
H 23.4917 0.747856 9.47043
H 23.6784 0.73319 10.9727
Ow 14.7696 7.28844 24.5014
H 15.1942 6.65935 23.9182
H 15.2825 7.25115 25.3088
Ow 5.24919 19.0281 6.64356
H 6.05557 19.501 6.84923
H 4.62099 19.713 6.41455
Ow 9.92392 19.7701 14.0188
H 9.38053 19.0348 13.7354
H 10.1165 20.2505 13.2136
Ow 9.32949 17.0937 10.4193
H 10.0577 16.5156 10.192
H 9.65069 17.9734 10.2215
Ow 20.4724 4.55789 7.09175
H 19.6927 5.10421 7.19071
H 20.2022 3.69491 7.40558
Ow 9.84872 6.34638 19.7969
H 9.15864 6.36309 20.46
H 9.63343 5.59421 19.2454
Ow 23.5002 6.72468 19.6787
H 24.1235 6.42802 20.3418
H 23.8588 6.40321 18.8515
Ow 12.1343 12.8971 2.823
H 11.587 13.0225 3.59825
H 11.8083 13.5396 2.19273
Ow 14.7116 7.70874 17.1388
H 13.9581 7.31031 17.5744
H 14.3572 8.48871 16.7118
Ow 16.3116 25.6876 8.42765
H 15.7246 0.460509 9.0666
H 16.4132 0.717503 7.74306
Ow 9.5478 0.832791 16.4585
H 9.73026 1.19469 15.5913
H 9.10121 25.6357 16.2837
Ow 17.9473 16.9232 18.2508
H 17.9798 17.2733 17.3605
H 18.0187 15.9753 18.1386
Ow 19.7989 22.8941 23.5089
H 19.4642 22.777 22.6198
H 20.6818 22.5252 23.4835
Ow 21.3851 17.0058 9.68599
H 22.0641 16.3328 9.63857
H 21.1706 17.0652 10.617
Ow 14.2556 6.41859 20.8018
H 13.6569 6.55912 20.0683
H 13.7149 6.01094 21.4783
Ow 21.1947 19.6846 9.14668
H 21.3497 18.757 8.96854
H 21.8196 20.1444 8.58598
Ow 0.193069 17.8337 17.8977
H 1.09907 17.6916 18.1719
H 25.3365 17.1147 18.2992
Ow 20.0234 17.2026 5.82375
H 19.7827 16.3368 5.49405
H 19.3469 17.4105 6.46826
Ow 8.37311 0.649367 24.4869
H 8.234 1.53349 24.8263
H 9.28504 0.644685 24.196
Ow 6.1346 11.2298 21.4778
H 6.75128 10.7001 20.9726
H 5.62881 10.5931 21.9828
Ow 20.2213 10.3018 18.6038
H 20.349 11.1957 18.2862
H 19.6865 9.88185 17.93
Ow 4.259 10.8386 7.28894
H 3.75382 10.7039 6.48715
H 4.45966 11.7746 7.29172
Ow 24.7937 9.23888 9.67419
H 25.0227 9.24996 8.74486
H 24.2221 9.99792 9.78954
Ow 16.1998 2.2038 15.5642
H 16.3209 1.84349 14.6857
H 15.8267 1.48207 16.0703
Ow 5.57226 4.30922 24.3124
H 4.97447 4.64361 24.9811
H 6.31776 3.96767 24.8062
Ow 9.62438 20.0369 25.5918
H 10.0486 19.4731 0.607276
H 8.68821 19.9404 25.7664
Ow 4.39357 6.72726 25.551
H 5.02169 6.9277 0.613596
H 3.72022 6.20057 0.350287
Ow 2.32544 14.8184 5.32848
H 3.25097 14.8361 5.08494
H 2.12735 15.7192 5.5845
Ow 7.1483 15.1902 22.1604
H 6.73232 14.851 22.9529
H 6.63936 14.8139 21.4423
Ow 21.468 15.9069 25.2577
H 21.0633 16.3074 0.395816
H 21.4789 14.9698 25.4528
Ow 20.3032 22.0484 4.96112
H 20.8165 22.3469 5.7119
H 19.4103 21.9695 5.29694
Ow 18.5499 24.6582 9.55776
H 19.1146 25.3664 9.24819
H 17.7071 24.8207 9.13412
Ow 13.903 12.6874 11.611
H 13.9283 13.2854 12.358
H 14.7037 12.8793 11.1228
Ow 22.6214 11.0279 1.81504
H 22.9658 10.4586 2.50311
H 22.7064 10.5131 1.0126
Ow 10.3402 21.7857 4.10139
H 10.2194 22.6733 4.43877
H 9.49954 21.3543 4.25443
Ow 25.144 22.6666 12.875
H 24.4276 22.8846 12.2788
H 25.3728 21.7635 12.6552
Ow 3.3123 4.92699 10.4414
H 3.7056 5.35974 11.1992
H 3.61963 5.43345 9.68953
Ow 12.3541 6.5214 18.5448
H 12.2145 6.02169 17.7404
H 11.4837 6.5937 18.9364
Ow 9.20587 7.16326 13.3947
H 8.38657 6.93046 12.9579
H 8.97038 7.24477 14.3189
Ow 5.98139 13.1668 23.6898
H 5.14508 13.5097 23.3748
H 6.1279 12.3765 23.1701
Ow 2.21945 22.7536 13.3959
H 2.63003 23.4009 12.8225
H 1.28903 22.9781 13.3837
Ow 16.307 11.452 15.7777
H 16.8267 10.7159 16.1007
H 16.0297 11.9152 16.5682
Ow 3.99866 9.47123 21.9638
H 4.39384 8.60552 22.0669
H 4.10501 9.67451 21.0345
Ow 17.5756 2.6933 10.1795
H 18.3887 2.8026 10.6725
H 17.8482 2.29708 9.35187
Ow 18.9442 13.4153 15.6857
H 19.2387 14.3055 15.8782
H 19.7383 12.8833 15.7374
Ow 7.70465 25.0968 12.6226
H 7.93629 0.206697 12.063
H 6.85715 25.3353 12.9982
Ow 18.8509 24.8749 12.4315
H 19.5794 25.4431 12.682
H 18.8703 24.8677 11.4746
Ow 16.6959 12.7008 13.3838
H 17.6046 12.7548 13.0878
H 16.7341 12.172 14.1808
Ow 21.9776 7.64602 11.6019
H 21.8915 7.42634 12.5295
H 22.7194 7.12226 11.299
Ow 0.264554 23.7479 18.0456
H 25.6825 23.7777 17.113
H 1.20395 23.9278 18.0828
Ow 25.6527 0.739837 14.4696
H 25.3447 1.44188 15.0427
H 24.9491 0.625396 13.8308
Ow 1.79763 15.4769 14.908
H 1.01054 15.013 15.1934
H 2.52113 14.9134 15.1823
Ow 18.084 25.0733 19.8977
H 17.5745 25.5686 20.539
H 18.3999 24.3095 20.3804
Ow 17.8916 15.5189 24.7971
H 17.1196 15.1585 25.2334
H 18.0559 16.3481 25.2462
Ow 19.361 13.9197 7.26197
H 20.2916 13.6957 7.2767
H 19.2543 14.5488 7.97544
Ow 16.9488 10.4601 11.5874
H 16.473 11.0725 12.1485
H 17.0905 9.69034 12.1383
Ow 25.2133 23.9461 15.3784
H 24.984 23.4905 14.5684
H 25.2843 24.8663 15.1243
Ow 1.86027 0.440285 9.85468
H 2.80939 0.54744 9.79196
H 1.66552 0.565147 10.7835
Ow 8.22816 6.56083 4.00999
H 7.76128 6.57482 3.17449
H 8.0868 7.43285 4.37853
Ow 8.87651 21.5569 15.7963
H 8.07803 21.1805 16.1663
H 9.30097 20.8257 15.3475
Ow 11.6648 4.7018 8.76207
H 12.1736 5.3768 8.31296
H 10.9447 5.17878 9.17464
Ow 0.186592 12.4691 12.9149
H 0.158063 13.1769 12.2711
H 0.34058 11.6793 12.3965
Ow 9.35675 5.15773 17.463
H 9.08103 5.99147 17.0821
H 10.1943 4.96639 17.041
Ow 21.1065 0.328515 5.85591
H 20.5564 0.214093 5.08102
H 21.4797 25.0929 6.01544
Ow 22.4377 5.92355 23.9556
H 21.7563 5.87511 23.2851
H 21.9834 5.72404 24.7742
Ow 24.7179 21.6685 24.9513
H 25.1611 20.8675 25.231
H 24.3489 22.0321 25.7562
Ow 1.1024 2.97397 11.818
H 1.72144 3.68972 11.674
H 1.65339 2.21489 12.0088
Ow 8.36484 20.5513 19.2321
H 8.91024 19.9856 19.7787
H 7.55272 20.6538 19.7283
Ow 9.02581 18.7273 17.2331
H 8.65438 19.3212 17.8854
H 8.3322 18.6219 16.582
Ow 7.43922 16.4715 17.3587
H 8.33041 16.7954 17.228
H 6.9367 17.2463 17.6103
Ow 7.6315 24.3958 20.9119
H 7.99919 24.0752 20.0883
H 8.29346 24.1822 21.5695
Ow 16.7171 8.52388 18.8846
H 17.366 8.64147 18.1909
H 15.931 8.22212 18.4293
Ow 23.3525 11.1977 21.7669
H 23.5684 11.9696 21.2435
H 22.6229 10.7886 21.3017
Ow 12.6562 21.4496 5.79914
H 11.8711 21.4235 5.25221
H 12.3233 21.458 6.69656
Ow 3.10317 11.5433 23.79
H 3.29886 10.866 23.1426
H 3.06376 12.3548 23.2838
Ow 13.3983 11.7649 7.84431
H 13.1067 10.961 7.41428
H 13.2347 12.4543 7.20072
Ow 6.15977 13.6586 20.2851
H 6.87391 13.6332 19.6482
H 6.23907 12.8357 20.7675
Ow 11.2532 0.146463 24.1108
H 11.8807 25.6427 24.8209
H 10.8794 24.9109 23.9527
Ow 7.56573 22.5661 8.983
H 8.40451 22.5951 8.52275
H 7.34366 23.4846 9.13525
Ow 9.74662 15.1401 7.46343
H 10.1018 15.1263 8.3522
H 9.72807 16.0674 7.22675
Ow 0.77991 9.84145 11.7099
H 0.249123 9.40226 12.3744
H 0.256863 9.78649 10.9101
Ow 2.15733 6.1115 18.3086
H 3.10634 6.05313 18.419
H 1.87306 6.71853 18.9919
Ow 12.7625 5.12323 22.661
H 12.0611 5.77401 22.6344
H 12.9809 5.04359 23.5895
Ow 22.0244 8.97705 20.4621
H 22.6495 8.3134 20.1705
H 21.6038 9.2804 19.6575
Ow 8.62764 10.7614 15.6105
H 7.69238 10.7429 15.4076
H 8.81883 9.88379 15.9414
Ow 9.70996 18.3924 20.6151
H 10.3272 17.933 20.0457
H 9.60421 17.8141 21.3705
Ow 10.5116 0.363855 2.47404
H 10.0555 25.3 1.99978
H 10.5075 25.7059 3.38645
Ow 21.7066 10.3384 8.25857
H 21.9871 11.0998 7.75092
H 21.362 10.7062 9.07233
Ow 20.3904 22.9518 2.28669
H 20.2106 22.603 3.15976
H 19.8135 22.4552 1.70636
Ow 16.0187 5.08327 9.80241
H 16.1748 5.55029 8.98159
H 16.545 4.28709 9.72938
Ow 14.4792 4.37557 14.9256
H 13.8598 4.10282 14.2487
H 14.8997 3.56321 15.2075
Ow 22.7178 16.2894 4.2795
H 22.533 16.4824 5.19864
H 23.3767 15.5956 4.30776
Ow 24.0666 4.71941 12.8508
H 23.651 4.15476 12.1991
H 24.3362 5.49521 12.3591
Ow 7.2 25.3054 8.82838
H 7.83599 25.7613 9.37967
H 6.3483 25.563 9.18118
Ow 16.1373 5.32364 23.1769
H 15.8772 4.67028 23.8263
H 16.8403 4.90313 22.6817
Ow 24.0257 25.3093 23.9568
H 24.1217 24.6512 23.2684
H 23.3183 0.245046 23.6498
Ow 21.5052 13.9909 11.3968
H 22.068 14.1489 10.6388
H 22.0814 14.108 12.1521
Ow 20.6672 3.10905 3.2379
H 21.0888 3.82033 3.72014
H 21.2626 2.36611 3.33683
Ow 6.25473 6.57404 14.7708
H 6.17376 7.27315 14.122
H 6.92521 6.88677 15.3782
Ow 6.07086 12.2825 3.52286
H 6.90189 11.9111 3.81902
H 5.92171 13.0295 4.10246
Ow 14.8999 0.55414 17.2678
H 14.0111 0.291671 17.0283
H 14.7793 1.21974 17.945
Ow 8.14098 14.9579 14.4042
H 8.1199 14.1306 13.9233
H 8.91493 14.8908 14.9634
Ow 5.11671 22.4963 18.6064
H 5.42877 21.9067 19.2928
H 5.59398 23.3125 18.7559
Ow 18.1164 6.57374 10.6006
H 18.4716 6.92832 9.78548
H 17.4298 5.96869 10.32
Ow 12.4584 2.37736 21.1734
H 11.5075 2.28374 21.2294
H 12.6339 3.25382 21.5158
Ow 15.4552 15.092 14.5791
H 14.5052 15.0946 14.4618
H 15.7504 14.3006 14.1289
Ow 22.4386 3.65016 10.9417
H 22.9666 2.85173 10.9375
H 22.5853 4.03933 10.0796
Ow 8.75225 17.8406 4.48697
H 7.81358 17.7271 4.6361
H 9.07886 18.2295 5.29837
Ow 7.89277 13.705 18.3291
H 7.27672 13.0404 18.0209
H 7.47829 14.5384 18.1057
Ow 19.1644 18.0334 20.5282
H 20.0141 17.6492 20.3123
H 18.6095 17.8268 19.776
Ow 18.8101 22.7128 14.348
H 17.9697 22.3834 14.0295
H 19.1608 23.2219 13.6172
Ow 16.2936 10.5095 0.29633
H 17.1101 10.5652 25.4311
H 16.202 9.57963 0.504023
Ow 18.7381 11.0815 20.9541
H 19.4691 11.1851 21.5633
H 19.1509 10.8616 20.119
Ow 16.6492 9.50072 7.96961
H 17.2579 10.0625 8.44931
H 17.117 8.67184 7.86794
Ow 11.3962 25.1386 19.123
H 11.5695 25.4113 20.024
H 10.5491 24.6949 19.1653
Ow 5.08988 7.81364 4.5018
H 5.38448 6.92581 4.29884
H 4.73209 7.75121 5.38742
Ow 22.1454 7.76804 4.82014
H 23.0557 7.96214 5.04378
H 21.6306 8.29185 5.43395
Ow 7.53798 4.14611 2.28823
H 8.38387 4.59321 2.31659
H 7.58966 3.58357 1.5155
Ow 21.231 22.2154 19.8004
H 20.308 22.1207 20.0357
H 21.4692 23.0892 20.1102
Ow 0.815382 11.7097 9.12439
H 1.09215 12.1081 8.29919
H 0.472328 12.4396 9.64002
Ow 3.34139 9.00774 13.0154
H 2.55646 9.16626 12.4911
H 3.19808 9.50756 13.8191
Ow 16.817 22.2853 10.0864
H 16.4073 22.427 10.9398
H 17.754 22.2351 10.2754
Ow 2.88679 7.89212 2.01914
H 1.99284 7.56604 1.91543
H 3.39646 7.12062 2.26665
Ow 23.8974 23.5123 22.0737
H 23.3301 22.9411 22.5916
H 23.3002 23.9732 21.4845
Ow 23.8833 12.4107 24.3088
H 24.7659 12.2165 24.6244
H 23.7915 11.885 23.5142
Ow 13.1018 15.0033 20.9814
H 12.5804 15.5032 20.3533
H 13.9036 15.515 21.0887
Ow 3.53046 24.6599 4.47468
H 3.76018 25.5231 4.1306
H 2.61602 24.5358 4.22045
Ow 2.49006 21.91 10.4272
H 3.08677 22.4589 10.9359
H 1.85296 21.5915 11.0666
Ow 10.7565 13.8636 5.20886
H 11.6613 13.7841 5.51075
H 10.3375 14.4334 5.85386
Ow 8.2601 9.55361 20.6408
H 8.48515 9.35299 21.5493
H 9.01969 10.0294 20.3049
Ow 13.3387 25.2573 21.7969
H 13.0752 0.542107 21.7103
H 12.953 24.9739 22.6258
Ow 3.74849 13.7524 15.9753
H 3.85826 13.7132 16.9254
H 4.32572 14.4631 15.6961
Ow 12.1001 25.3068 16.4896
H 12.0617 25.347 17.4452
H 11.3685 0.218968 16.197
Ow 13.3176 7.07461 7.98801
H 13.2109 7.13834 8.93709
H 12.9379 7.88517 7.64882
Ow 24.3787 3.31538 22.5097
H 25.1996 2.82474 22.4677
H 24.6189 4.20696 22.2575
Ow 17.3942 16.1657 2.3468
H 17.9775 16.9155 2.46396
H 16.5859 16.5425 1.99908
Ow 4.51956 0.916309 9.90668
H 4.4598 0.536569 10.7833
H 5.04542 1.70759 10.0233
Ow 23.3972 14.3404 16.6307
H 22.7895 13.6052 16.7106
H 23.7239 14.4795 17.5197
Ow 19.9239 15.8782 14.9156
H 20.6312 16.1208 15.5131
H 19.2445 16.5349 15.0687
Ow 6.95855 15.7759 10.4714
H 7.84291 16.1286 10.5701
H 6.51731 16.3939 9.88864
Ow 2.49458 2.29037 7.32312
H 3.4343 2.43967 7.21879
H 2.38989 1.34374 7.22736
Ow 18.789 8.11044 20.7102
H 18.2738 8.09405 19.9036