LAMMPS (22 Aug 2018)
####################################################
# Transport properties of KCl in water
#  at 298 K and 1 atm.
#################### SETTING UP ####################
units real
dimension 3
newton on
boundary p p p
atom_style full

#################### VARIABLES ####################
variable Temp equal 298       # Temperature in K
variable Pres equal 1.0       # Pressure in atm.

variable RandomSeed equal 200 # The random seed for velocity
variable tstep equal 2.0      # 2fs
variable Ninptpre equal 10000 # Pre-initialize the NPT ensemble (very small timesteps)
variable Ninpt equal 5000000    # Initialize the NPT ensemble
variable Npnpt equal 5000000  # Production in the NPT ensemble (volume)
variable Ninvtpre equal 10000 # Pre-initialize the NVT ensemble (very small timesteps)
variable Ninvt equal 100000   # Initialize the NVT ensemble
variable Npnvt equal 100000   # Production in the NVT ensemble (energy)
variable Nrun equal 100000000   # production in the NVE ensemble
variable Nf equal 10000       # Nfreq (fix ave/time and thermo)
variable Ne equal  10         # Nevery (fix ave/time)
variable Nr equal ${Nf}/${Ne} # Nrepeat (fix ave/time)
variable Nr equal 10000/${Ne} 
variable Nr equal 10000/10 
variable NBR equal ${Npnpt}/50 # Block averaging for density (NPT)
variable NBR equal 5000000/50 
variable Nd equal ${Npnvt}/10 # Frequency of outputting positions of atoms in the NVT ensemble
variable Nd equal 100000/10 

variable nb equal 10          # Number of blocks (fix ordern)
variable nbe equal 20         # Number of block elements (fix ordern)
variable Nvisc equal 5        # Nevery for viscosity (fix ordern: sample data at (Nvisc*2))
variable Ncond equal 5        # Nevery for Tconductivity (fix ordern: sample data at (Ncond*2))
variable Ndiff equal 1000     # Nevery for diffusivity (fix ordern: sample data at (Ndiff))
variable Nwrit equal 100000   # Nwrite for transport properties (fix ordern: write every (Nwrit))

variable Nrdfe equal 100      # Nevery for RDF (fix ave/time)
variable Nrdfw equal 1000     # Nwrite for RDF (compute rdf/ext: write every (Nrdfw*Nrdfe))
variable binnum equal 2000    # Number of bins for RDF

#################### ATOM DEFINITION and FORCEFIELD ####################
read_data ./data.lmp                     # read the positions
  orthogonal box = (0 0 0) to (33.6962 33.6962 33.6962)
  4 by 4 by 8 MPI processor grid
  reading atoms ...
  3152 atoms
  scanning bonds ...
  2 = max bonds/atom
  scanning angles ...
  1 = max angles/atom
  reading bonds ...
  2000 bonds
  reading angles ...
  1000 angles
  2 = max # of 1-2 neighbors
  1 = max # of 1-3 neighbors
  1 = max # of 1-4 neighbors
  2 = max # of special neighbors
include ./forcefield.data                  # read the force field
#--------INTERMOLECULAR POTENTIAL -------------------#
# ---------------Developed for NaCl in water (tip4p/2005) system-----

mass 1 15.9994 # Ow
mass 2 1.00794 # Hw
mass 3 39.0983 # K
mass 4 35.4527 # Cl

pair_style lj/cut/tip4p/long 1 2 1 1 0.1546 10.0

kspace_style pppm/tip4p 1.0e-5
pair_modify tail yes # ATC i

#-----------------Combinations----------------------------
# atomtype atomtype epsilon sigma

pair_coeff 1 1 0.1851 3.1589     # Ow-Ow
pair_coeff 1 2 0.0000 0.0000     # Ow-Hw
pair_coeff 1 3 0.3347 2.89540     # Ow-K
pair_coeff 1 4 0.0148 4.07631     # Ow-Cl

pair_coeff 2 2 0.0000 0.0000     # Hw-Hw
pair_coeff 2 3 0.0000 0.0000     # Hw-K
pair_coeff 2 4 0.0000 0.0000     # Hw-Cl

pair_coeff 3 3 0.4746 2.30140     # K-K
pair_coeff 3 4 0.3346 3.41700     # K-Cl

pair_coeff 4 4 0.0184 4.69906     # Cl-Cl

bond_style  harmonic
bond_coeff 1 1000 0.9572          # Ow-Hw

angle_style harmonic
angle_coeff 1 100 104.52          # H-O-H

#dihedral_style none
#improper_style none

set type 1 charge -1.1128        # O
  1000 settings made for charge
set type 2 charge +0.5564        # OH
  2000 settings made for charge
set type 3 charge +0.7500        # K
  76 settings made for charge
set type 4 charge -0.7500        # Cl
  76 settings made for charge


#################### INITIALIZATION ####################
# groups for the central atoms of water (O)
group wat type 1      # The Oxygen of WATER molecules
1000 atoms in group wat
group K type 3
76 atoms in group K
group Cl type 4
76 atoms in group Cl

# neigbor lists
neighbor 2.0 bin
neigh_modify every 1 delay 0 check yes

# velocity-Verlet integrator
run_style verlet

# minimizing the system using the conjugate gradient method
min_style cg
min_modify dmax 0.05
minimize 1.0e-6 1.0e-6 1000 10000
PPPM initialization ...
  extracting TIP4P info from pair style
  using 12-bit tables for long-range coulomb (../kspace.cpp:321)
  G vector (1/distance) = 0.311414
  grid = 32 32 32
  stencil order = 5
  estimated absolute RMS force accuracy = 0.0032261
  estimated relative force accuracy = 9.71531e-06
  using double precision FFTs
  3d grid and FFT values/proc = 2475 256
Neighbor list info ...
  update every 1 steps, delay 0 steps, check yes
  max neighbors/atom: 2000, page size: 100000
  master list distance cutoff = 12.3092
  ghost atom cutoff = 12.3092
  binsize = 6.1546, bins = 6 6 6
  1 neighbor lists, perpetual/occasional/extra = 1 0 0
  (1) pair lj/cut/tip4p/long, perpetual
      attributes: half, newton on
      pair build: half/bin/newton
      stencil: half/bin/3d/newton
      bin: standard
Per MPI rank memory allocation (min/avg/max) = 8.192 | 8.248 | 8.723 Mbytes
Step Temp E_pair E_mol TotEng Press 
       0            0    953.99707 3.2938476e-05    953.99711    26411.001 
    1000            0   -21619.888    371.68467   -21248.203   -4461.4062 
Loop time of 1.44247 on 128 procs for 1000 steps with 3152 atoms

99.1% CPU use with 128 MPI tasks x no OpenMP threads

Minimization stats:
  Stopping criterion = max iterations
  Energy initial, next-to-last, final = 
         953.997106204     -21248.1081974     -21248.2029144
  Force two-norm initial, final = 1809.72 21.4545
  Force max component initial, final = 225.95 2.9606
  Final line search alpha, max atom move = 0.0105836 0.0313339
  Iterations, force evaluations = 1000 1778

MPI task timing breakdown:
Section |  min time  |  avg time  |  max time  |%varavg| %total
---------------------------------------------------------------
Pair    | 0.11855    | 0.35343    | 0.55428    |  13.9 | 24.50
Bond    | 0.00081726 | 0.0016321  | 0.0023025  |   0.6 |  0.11
Kspace  | 0.61599    | 0.82576    | 1.0518     |   9.2 | 57.25
Neigh   | 0.0068425  | 0.0071381  | 0.0072718  |   0.1 |  0.49
Comm    | 0.15357    | 0.17396    | 0.1982     |   2.6 | 12.06
Output  | 8.7734e-05 | 9.1598e-05 | 9.4757e-05 |   0.0 |  0.01
Modify  | 0          | 0          | 0          |   0.0 |  0.00
Other   |            | 0.08046    |            |       |  5.58

Nlocal:    24.625 ave 36 max 5 min
Histogram: 1 1 7 3 11 23 39 16 20 7
Nghost:    2563.66 ave 2681 max 2499 min
Histogram: 15 42 25 12 2 0 0 10 13 9
Neighs:    7984.47 ave 13449 max 1513 min
Histogram: 2 6 6 10 25 32 22 16 6 3

Total # of neighbors = 1022012
Ave neighs/atom = 324.242
Ave special neighs/atom = 1.90355
Neighbor list builds = 21
Dangerous builds = 0
reset_timestep 0

# initializing velocities
velocity all create ${Temp} ${RandomSeed}
velocity all create 298 ${RandomSeed}
velocity all create 298 200

# rate of writing thermal properties to the log file
thermo ${Nf}
thermo 10000

#################### 1) Initialize the NPT ensemble ####################
# applying the shake algorithm for rigid molecules and the NPT solver
fix constrain all shake 1.0e-6 1000 0 b 1 a 1
  0 = # of size 2 clusters
  0 = # of size 3 clusters
  0 = # of size 4 clusters
  1000 = # of frozen angles
fix integrate all npt temp ${Temp} ${Temp} 10.0 iso ${Pres} ${Pres} 100.0
fix integrate all npt temp 298 ${Temp} 10.0 iso ${Pres} ${Pres} 100.0
fix integrate all npt temp 298 298 10.0 iso ${Pres} ${Pres} 100.0
fix integrate all npt temp 298 298 10.0 iso 1 ${Pres} 100.0
fix integrate all npt temp 298 298 10.0 iso 1 1 100.0


# Initializing the whole system with very small timesteps in the NPT ensemble
timestep 0.001
run ${Ninptpre}
run 10000
PPPM initialization ...
  extracting TIP4P info from pair style
  using 12-bit tables for long-range coulomb (../kspace.cpp:321)
  G vector (1/distance) = 0.311414
  grid = 32 32 32
  stencil order = 5
  estimated absolute RMS force accuracy = 0.0032261
  estimated relative force accuracy = 9.71531e-06
  using double precision FFTs
  3d grid and FFT values/proc = 2475 256
Per MPI rank memory allocation (min/avg/max) = 7.943 | 8.082 | 8.207 Mbytes
Step Temp E_pair E_mol TotEng Press Volume 
       0    436.54021   -21619.888            0   -18820.913    -698468.3    38259.716 
   10000    174.87482   -20022.992            0   -18901.743    1683.6786     38100.95 
Loop time of 9.97152 on 128 procs for 10000 steps with 3152 atoms

Performance: 0.087 ns/day, 276.987 hours/ns, 1002.856 timesteps/s
99.4% CPU use with 128 MPI tasks x no OpenMP threads

MPI task timing breakdown:
Section |  min time  |  avg time  |  max time  |%varavg| %total
---------------------------------------------------------------
Pair    | 0.43212    | 2.342      | 4.0551     |  43.9 | 23.49
Bond    | 0.00092896 | 0.0011452  | 0.0019322  |   0.5 |  0.01
Kspace  | 3.5269     | 5.2975     | 7.1344     |  29.3 | 53.13
Neigh   | 0          | 0          | 0          |   0.0 |  0.00
Comm    | 0.85006    | 0.97471    | 1.1439     |   6.6 |  9.77
Output  | 9.4587e-05 | 9.7957e-05 | 0.00010112 |   0.0 |  0.00
Modify  | 1.179      | 1.239      | 1.2858     |   2.0 | 12.43
Other   |            | 0.117      |            |       |  1.17

Nlocal:    24.625 ave 36 max 5 min
Histogram: 1 1 7 3 11 24 38 16 20 7
Nghost:    2562.77 ave 2681 max 2497 min
Histogram: 16 39 27 12 2 0 0 10 13 9
Neighs:    7984.71 ave 13438 max 1516 min
Histogram: 2 6 6 9 26 32 23 15 6 3

Total # of neighbors = 1022043
Ave neighs/atom = 324.252
Ave special neighs/atom = 1.90355
Neighbor list builds = 0
Dangerous builds = 0
timestep 0.01
run ${Ninptpre}
run 10000
PPPM initialization ...
  extracting TIP4P info from pair style
  using 12-bit tables for long-range coulomb (../kspace.cpp:321)
  G vector (1/distance) = 0.311513
  grid = 32 32 32
  stencil order = 5
  estimated absolute RMS force accuracy = 0.00321284
  estimated relative force accuracy = 9.67538e-06
  using double precision FFTs
  3d grid and FFT values/proc = 2475 256
Per MPI rank memory allocation (min/avg/max) = 7.943 | 8.082 | 8.207 Mbytes
Step Temp E_pair E_mol TotEng Press Volume 
   10000    174.87482   -20022.992            0   -18901.743   -42112.825     38100.95 
   20000    298.71056    -18719.53            0    -16804.28   -852.78146    39023.668 
Loop time of 9.33046 on 128 procs for 10000 steps with 3152 atoms

Performance: 0.926 ns/day, 25.918 hours/ns, 1071.759 timesteps/s
99.4% CPU use with 128 MPI tasks x no OpenMP threads

MPI task timing breakdown:
Section |  min time  |  avg time  |  max time  |%varavg| %total
---------------------------------------------------------------
Pair    | 0.409      | 2.3081     | 3.6395     |  41.5 | 24.74
Bond    | 0.00095062 | 0.0011413  | 0.0019084  |   0.4 |  0.01
Kspace  | 3.423      | 4.8117     | 6.6539     |  29.0 | 51.57
Neigh   | 0.0011701  | 0.0012012  | 0.0012288  |   0.0 |  0.01
Comm    | 0.80385    | 0.92843    | 1.0708     |   6.9 |  9.95
Output  | 8.7032e-05 | 9.0911e-05 | 9.4537e-05 |   0.0 |  0.00
Modify  | 1.0827     | 1.1586     | 1.2086     |   2.6 | 12.42
Other   |            | 0.1212     |            |       |  1.30

Nlocal:    24.625 ave 35 max 5 min
Histogram: 1 1 1 5 8 20 41 23 14 14
Nghost:    2523.88 ave 2630 max 2461 min
Histogram: 8 32 44 10 2 0 0 8 13 11
Neighs:    7826.1 ave 12001 max 1482 min
Histogram: 2 0 6 10 16 32 20 21 12 9

Total # of neighbors = 1001741
Ave neighs/atom = 317.811
Ave special neighs/atom = 1.90355
Neighbor list builds = 4
Dangerous builds = 0
timestep 0.1
run ${Ninptpre}
run 10000
PPPM initialization ...
  extracting TIP4P info from pair style
  using 12-bit tables for long-range coulomb (../kspace.cpp:321)
  G vector (1/distance) = 0.310941
  grid = 32 32 32
  stencil order = 5
  estimated absolute RMS force accuracy = 0.00328993
  estimated relative force accuracy = 9.90753e-06
  using double precision FFTs
  3d grid and FFT values/proc = 2475 256
Per MPI rank memory allocation (min/avg/max) = 7.943 | 8.09 | 8.207 Mbytes
Step Temp E_pair E_mol TotEng Press Volume 
   20000    298.71056   -18719.531            0   -16804.282    -14906.62    39023.668 
   30000     301.0549   -18811.303            0   -16881.023     636.7485    34795.972 
Loop time of 9.70474 on 128 procs for 10000 steps with 3152 atoms

Performance: 8.903 ns/day, 2.696 hours/ns, 1030.424 timesteps/s
99.4% CPU use with 128 MPI tasks x no OpenMP threads

MPI task timing breakdown:
Section |  min time  |  avg time  |  max time  |%varavg| %total
---------------------------------------------------------------
Pair    | 0.88558    | 2.5189     | 3.6585     |  30.4 | 25.95
Bond    | 0.00094783 | 0.0011428  | 0.0017547  |   0.4 |  0.01
Kspace  | 3.7148     | 4.8863     | 6.4478     |  21.7 | 50.35
Neigh   | 0.046863   | 0.047253   | 0.04752    |   0.1 |  0.49
Comm    | 0.85707    | 0.9735     | 1.099      |   6.1 | 10.03
Output  | 8.9637e-05 | 9.3055e-05 | 9.6901e-05 |   0.0 |  0.00
Modify  | 1.0879     | 1.1661     | 1.221      |   2.8 | 12.02
Other   |            | 0.1115     |            |       |  1.15

Nlocal:    24.625 ave 33 max 17 min
Histogram: 5 15 8 19 18 21 25 6 8 3
Nghost:    2774.45 ave 2800 max 2745 min
Histogram: 3 6 13 12 22 18 18 18 14 4
Neighs:    8719.02 ave 12177 max 4983 min
Histogram: 3 7 9 16 22 29 15 15 10 2

Total # of neighbors = 1116034
Ave neighs/atom = 354.072
Ave special neighs/atom = 1.90355
Neighbor list builds = 47
Dangerous builds = 0
timestep 0.2
run ${Ninptpre}
run 10000
PPPM initialization ...
  extracting TIP4P info from pair style
  using 12-bit tables for long-range coulomb (../kspace.cpp:321)
  G vector (1/distance) = 0.309047
  grid = 30 30 30
  stencil order = 5
  estimated absolute RMS force accuracy = 0.00391958
  estimated relative force accuracy = 1.18037e-05
  using double precision FFTs
  3d grid and FFT values/proc = 2475 256
Per MPI rank memory allocation (min/avg/max) = 7.948 | 8.156 | 8.216 Mbytes
Step Temp E_pair E_mol TotEng Press Volume 
   30000     301.0549   -18811.313            0   -16881.032    7457.0448    34795.972 
   40000    299.98822   -18946.034            0   -17022.592   -87.319321    34035.675 
Loop time of 9.47355 on 128 procs for 10000 steps with 3152 atoms

Performance: 18.240 ns/day, 1.316 hours/ns, 1055.571 timesteps/s
99.4% CPU use with 128 MPI tasks x no OpenMP threads

MPI task timing breakdown:
Section |  min time  |  avg time  |  max time  |%varavg| %total
---------------------------------------------------------------
Pair    | 1.9377     | 2.6871     | 3.6944     |  20.7 | 28.36
Bond    | 0.00095416 | 0.0011483  | 0.0018584  |   0.4 |  0.01
Kspace  | 3.3395     | 4.3474     | 5.1262     |  16.2 | 45.89
Neigh   | 0.029832   | 0.030407   | 0.031029   |   0.2 |  0.32
Comm    | 0.95627    | 1.0698     | 1.2087     |   5.3 | 11.29
Output  | 8.8505e-05 | 9.1601e-05 | 9.5919e-05 |   0.0 |  0.00
Modify  | 0.9809     | 1.1925     | 1.2827     |   6.5 | 12.59
Other   |            | 0.145      |            |       |  1.53

Nlocal:    24.625 ave 34 max 15 min
Histogram: 2 5 7 24 23 28 18 16 4 1
Nghost:    2812.39 ave 2840 max 2795 min
Histogram: 9 19 30 14 18 10 15 4 4 5
Neighs:    8875.61 ave 12802 max 4495 min
Histogram: 2 2 9 21 20 32 17 15 6 4

Total # of neighbors = 1136078
Ave neighs/atom = 360.431
Ave special neighs/atom = 1.90355
Neighbor list builds = 96
Dangerous builds = 0
timestep 0.5
run ${Ninptpre}
run 10000
PPPM initialization ...
  extracting TIP4P info from pair style
  using 12-bit tables for long-range coulomb (../kspace.cpp:321)
  G vector (1/distance) = 0.30958
  grid = 30 30 30
  stencil order = 5
  estimated absolute RMS force accuracy = 0.00383443
  estimated relative force accuracy = 1.15473e-05
  using double precision FFTs
  3d grid and FFT values/proc = 2475 256
Per MPI rank memory allocation (min/avg/max) = 7.951 | 8.192 | 8.217 Mbytes
Step Temp E_pair E_mol TotEng Press Volume 
   40000    299.98822   -18946.034            0   -17022.593   -1604.3829    34035.675 
   50000    296.36031   -19026.494            0   -17126.314    595.86247    33833.514 
Loop time of 9.82831 on 128 procs for 10000 steps with 3152 atoms

Performance: 43.955 ns/day, 0.546 hours/ns, 1017.469 timesteps/s
99.4% CPU use with 128 MPI tasks x no OpenMP threads

MPI task timing breakdown:
Section |  min time  |  avg time  |  max time  |%varavg| %total
---------------------------------------------------------------
Pair    | 1.7825     | 2.7244     | 3.4699     |  19.5 | 27.72
Bond    | 0.00094985 | 0.0011535  | 0.001992   |   0.5 |  0.01
Kspace  | 3.7141     | 4.4932     | 5.3889     |  15.2 | 45.72
Neigh   | 0.076472   | 0.078173   | 0.079906   |   0.4 |  0.80
Comm    | 0.98245    | 1.0982     | 1.2251     |   5.0 | 11.17
Output  | 9.2552e-05 | 9.5392e-05 | 0.00010808 |   0.0 |  0.00
Modify  | 1.0647     | 1.2635     | 1.3533     |   5.9 | 12.86
Other   |            | 0.1696     |            |       |  1.73

Nlocal:    24.625 ave 32 max 16 min
Histogram: 2 8 4 21 10 34 24 7 10 8
Nghost:    2823.76 ave 2853 max 2800 min
Histogram: 11 12 14 17 17 18 23 9 5 2
Neighs:    8942.59 ave 12284 max 5837 min
Histogram: 6 12 12 17 20 20 19 12 5 5

Total # of neighbors = 1144652
Ave neighs/atom = 363.151
Ave special neighs/atom = 1.90355
Neighbor list builds = 243
Dangerous builds = 0
reset_timestep 0

# continuing the initialization with the final value of timestep
unfix integrate
fix integrate all npt temp ${Temp} ${Temp} 100.0 iso ${Pres} ${Pres} 1000.0
fix integrate all npt temp 298 ${Temp} 100.0 iso ${Pres} ${Pres} 1000.0
fix integrate all npt temp 298 298 100.0 iso ${Pres} ${Pres} 1000.0
fix integrate all npt temp 298 298 100.0 iso 1 ${Pres} 1000.0
fix integrate all npt temp 298 298 100.0 iso 1 1 1000.0
#fix integrate all rigid/npt/small molecule temp ${Temp} ${Temp} 100.0 iso ${Pres} ${Pres} 1000.0

timestep ${tstep}
timestep 2
run ${Ninpt}
run 5000000
PPPM initialization ...
  extracting TIP4P info from pair style
  using 12-bit tables for long-range coulomb (../kspace.cpp:321)
  G vector (1/distance) = 0.309724
  grid = 30 30 30
  stencil order = 5
  estimated absolute RMS force accuracy = 0.00381179
  estimated relative force accuracy = 1.14791e-05
  using double precision FFTs
  3d grid and FFT values/proc = 2475 256
Per MPI rank memory allocation (min/avg/max) = 7.96 | 8.208 | 8.217 Mbytes
Step Temp E_pair E_mol TotEng Press Volume 
       0    296.36031   -19026.493            0   -17126.313    686.27494    33833.514 
   10000    294.17111   -19052.163            0    -17166.02   -936.10313    34144.582 
   20000    287.69673    -19059.89            0   -17215.258   -150.45437    34070.346 
   30000    293.34126   -19106.415            0   -17225.593   -19.358499    34091.447 
   40000    293.63318    -19056.62            0   -17173.925   -14.269086    33836.032 
   50000    292.43898   -19111.695            0   -17236.658   -149.81226    33889.317 
   60000    303.32077   -19047.322            0   -17102.514    668.40148    33965.348 
   70000     293.7588   -19149.285            0   -17265.785    190.58691    33450.023 
   80000     310.0719   -19119.288            0   -17131.193    273.17206    33800.539 
   90000    292.65636   -19136.577            0   -17260.146    702.65049    34166.995 
  100000    296.03894   -19105.047            0   -17206.928   -435.21752    33837.121 
  110000    296.94502   -18999.675            0   -17095.746   -205.09343    33858.662 
  120000    300.64824   -19161.853            0    -17234.18   -771.42442    33955.501 
  130000    298.04798    -19117.44            0   -17206.439   -213.65022    34106.172 
  140000    303.13919   -19113.764            0   -17170.119    397.24673    33931.398 
  150000    301.03479   -19149.922            0    -17219.77   -266.57125    33920.165 
  160000    293.19607   -19060.113            0   -17180.221   -217.33815    33939.388 
  170000    305.88603   -19103.875            0   -17142.619   -558.42052    34046.973 
  180000    302.64095   -19110.193            0   -17169.743   -330.23009    33668.073 
  190000    292.76739   -19071.109            0   -17193.966    14.738755    33914.714 
  200000    303.14485   -19077.346            0   -17133.665   -406.67454    34319.713 
  210000    300.37801   -19192.601            0    -17266.66   -605.05965     33683.55 
  220000    293.36222   -19142.675            0   -17261.718   -45.084147     33487.98 
  230000    290.13675   -19109.072            0   -17248.795    762.51634    33979.644 
  240000    303.69987   -19057.734            0   -17110.495   -173.97753    34215.015 
  250000    303.02328   -19005.748            0   -17062.847   -457.32338    34121.452 
  260000     294.2758   -19100.706            0   -17213.892    352.66735    34015.611 
  270000    296.72827    -19002.53            0   -17099.991   -59.424344    34097.712 
  280000     298.6627   -19113.343            0   -17198.401   -192.41128    33907.406 
  290000    300.31632   -19084.092            0   -17158.547   -208.06502    33997.127 
  300000     301.8671   -19055.753            0   -17120.265    23.699411    34064.913 
  310000    288.98823   -19114.144            0   -17261.231    115.92017    33842.171 
  320000    296.67484   -18990.379            0   -17088.182   -168.42767    33992.143 
  330000    306.79442   -19019.217            0   -17052.136   -914.40828    34297.272 
  340000    289.67289   -19081.857            0   -17224.554    1281.1405    33431.308 
  350000    300.27277   -19001.082            0   -17075.817   -199.35589    34013.343 
  360000    297.70274   -19075.258            0   -17166.471   -450.25619    33903.209 
  370000     299.7303   -19083.658            0    -17161.87    86.800279    33718.881 
  380000     302.5501   -19071.366            0   -17131.499   -553.32182    34360.111 
  390000    300.40656   -19197.743            0    -17271.62    245.73801    33582.443 
  400000    297.16307   -19109.354            0   -17204.027     -730.344    34471.925 
  410000    300.00706   -19110.441            0   -17186.879    143.85301    33964.954 
  420000    292.99072   -19116.005            0    -17237.43    13.860297     33729.98 
  430000    292.08744    -19115.44            0   -17242.656   -58.427732    34073.177 
  440000    296.69686   -19179.684            0   -17277.346    -81.70047    34004.212 
  450000    296.88608   -19081.822            0    -17178.27   -474.52808    34342.809 
  460000     299.0707   -19200.618            0    -17283.06    1895.5011    33361.984 
  470000    292.47084   -19062.933            0   -17187.692   -146.36908    34049.125 
  480000    301.88723   -18991.169            0   -17055.551      33.3647    34074.884 
  490000    299.19906   -19173.433            0   -17255.052    117.90568    33680.064 
  500000    298.19044   -19071.016            0   -17159.101   -86.751361     33785.31 
  510000    297.59388   -19061.496            0   -17153.406   -320.10464    34185.024 
  520000    298.80317   -19102.964            0   -17187.121     410.8911    33748.395 
  530000    282.61456   -19023.888            0   -17211.842   -298.40681    34266.096 
  540000    297.23439   -19102.621            0   -17196.836    211.98633    33906.517 
  550000    305.02637   -19077.585            0    -17121.84   -37.845278    33692.815 
  560000    295.96152   -19170.428            0   -17272.805    135.75232     33561.09 
  570000     290.7488   -19139.628            0   -17275.428   -216.59193    33911.087 
  580000    301.89619   -19085.309            0   -17149.634   -271.16952    34007.383 
  590000    297.01822   -19009.209            0    -17104.81    343.91089    33797.361 
  600000    305.15024   -19127.781            0   -17171.243    69.453865    33822.865 
  610000    298.07772   -19071.257            0   -17160.066    452.80855      33867.9 
  620000    304.59182   -19026.427            0   -17073.469    190.58497    33788.142 
  630000    301.77054   -19001.467            0   -17066.598   -31.042305    34311.468 
  640000     303.3389    -19131.11            0   -17186.186    408.09712     33456.66 
  650000     298.2073   -19033.262            0    -17121.24   -66.531359    34145.041 
  660000    291.30817   -19089.917            0    -17222.13    590.52399    33821.509 
  670000    294.38498   -19150.517            0   -17263.002    424.29278    33777.145 
  680000    298.30216   -18954.117            0   -17041.486   -228.42517     34330.51 
  690000    299.75684   -19105.093            0   -17183.135   -603.50637    33582.718 
  700000    307.19068   -19104.596            0   -17134.975    250.56314    34158.655 
  710000    300.22108   -19014.321            0   -17089.386    474.20209    34187.817 
  720000    294.33699   -19149.754            0   -17262.547   -557.16308    33536.713 
  730000    300.23353   -19097.739            0   -17172.725    305.08046    34028.198 
  740000    293.10393   -19045.673            0   -17166.372    283.67069    33692.424 
  750000    300.70746   -19111.941            0   -17183.889    524.46989    33833.206 
  760000    298.32571   -19121.951            0   -17209.169      753.651    33480.542 
  770000      304.876    -19087.68            0   -17132.899    488.14283    33745.842 
  780000    288.54953   -19022.338            0   -17172.239   -596.91398    34145.893 
  790000    305.73924   -18994.371            0   -17034.056   -732.23567    33807.278 
  800000    301.24533   -19075.031            0   -17143.529   -724.45188    34410.604 
  810000    302.34196   -19098.419            0   -17159.886    98.513436    33675.828 
  820000    294.43054   -19061.951            0   -17174.144    572.27069    33543.732 
  830000    298.93158   -19102.528            0   -17185.861    66.833825    33779.511 
  840000    296.35191   -19083.764            0   -17183.638   -170.03626    33986.249 
  850000    300.15769   -18993.149            0   -17068.621    -1056.298    33929.798 
  860000    292.03109   -19116.397            0   -17243.974    1048.5856    33358.519 
  870000    303.93641   -19054.405            0   -17105.649   -295.40154    33775.393 
  880000    305.79774   -19161.879            0   -17201.189   -25.738704    33892.929 
  890000    299.96369    -19048.22            0   -17124.936   -246.55437    34180.668 
  900000    289.96342   -19067.302            0   -17208.137   -594.64265     33948.68 
  910000    297.83933   -19089.244            0   -17179.581    91.781551    33861.841 
  920000    302.42746   -19107.572            0   -17168.491   -6.2806181    34039.994 
  930000    294.36901   -18959.553            0    -17072.14   -586.17662    34437.641 
  940000    296.51986   -19083.163            0    -17181.96   -43.320964     33941.08 
  950000    297.39974   -19130.399            0   -17223.555     414.6689    33872.476 
  960000    294.68276   -19049.369            0   -17159.945    8.9191757    33698.842 
  970000    288.20598   -19218.427            0   -17370.531   -96.778392    33599.577 
  980000    294.55709   -19145.157            0   -17256.539   -524.71595    33862.755 
  990000    304.94331   -19069.331            0    -17114.12    655.01818    33646.876 
 1000000    288.32502   -19146.083            0   -17297.423   -426.32362    33765.585 
 1010000    302.75651   -19012.133            0   -17070.943   -441.35926    34241.325 
 1020000    297.86579   -19041.406            0   -17131.573   -1158.8693     33968.65 
 1030000    298.62661   -19104.394            0   -17189.683   -275.93668    34214.907 
 1040000    298.80897   -19031.966            0   -17116.086    218.54233    33650.609 
 1050000    303.78279   -19112.618            0   -17164.847    190.54137    33695.136 
 1060000    305.11806   -19035.249            0   -17078.917   -550.78253    33899.337 
 1070000     298.7306   -19179.787            0   -17264.409   -317.82013    33653.223 
 1080000    293.38888   -19101.094            0   -17219.966    208.04404    33650.806 
 1090000    292.06345   -19048.225            0   -17175.595    190.91429    34328.274 
 1100000    299.82668   -19036.721            0   -17114.315   -990.11587    33955.236 
 1110000    301.23881   -19241.844            0   -17310.384    45.229675    33619.469 
 1120000    291.08054   -19025.655            0   -17159.327    262.54258    33776.714 
 1130000    312.88518   -19051.464            0   -17045.331    346.69172    33831.153 
 1140000    309.46843     -19176.4            0   -17192.175   -79.591886    33839.561 
 1150000    310.34304   -19095.701            0   -17105.868    59.818793     33918.81 
 1160000     291.3531   -18991.024            0   -17122.949   -997.39213    34267.381 
 1170000    296.84228   -19121.758            0   -17218.488   -99.813566     34291.42 
 1180000    289.39414   -19085.781            0   -17230.266   -236.83163    34126.538 
 1190000     299.6226   -18975.759            0   -17054.662   -200.10472    34403.254 
 1200000    298.21089   -19067.096            0   -17155.051   -106.65485    34119.392 
 1210000    300.49167   -19076.597            0   -17149.928    -299.2453    33985.235 
 1220000    306.33432   -19091.234            0   -17127.103    -94.15338    33870.263 
 1230000    297.83971   -19105.265            0     -17195.6    148.24509    34267.744 
 1240000      288.506    -19014.98            0   -17165.159    238.07247    33974.936 
 1250000    291.33838   -19016.162            0   -17148.181   -683.35435    34154.368 
 1260000    301.50372   -19006.172            0   -17073.014   -1185.6737    34407.599 
 1270000    295.64673    -19030.82            0   -17135.215   -1024.4917    34309.106 
 1280000    291.28887   -19059.573            0    -17191.91    205.00896    34034.866 
 1290000    294.63127   -19149.034            0    -17259.94    -414.9569    34062.827 
 1300000    296.75186   -19170.515            0   -17267.825    515.83704    34034.827 
 1310000    300.37293   -19102.897            0   -17176.989   -767.23248    33753.058 
 1320000    298.01049   -19162.179            0   -17251.419   -87.989551    33717.193 
 1330000      293.601   -19070.688            0     -17188.2   -435.10471    33943.055 
 1340000    294.34529   -19095.849            0   -17208.589     653.2115    33185.755 
 1350000    301.52867   -19124.705            0   -17191.387      406.568    33722.446 
 1360000    297.83743   -19023.971            0    -17114.32   -327.77329     33627.77 
 1370000    297.47812   -19033.853            0   -17126.506   -195.69843    33681.157 
 1380000    292.62347   -19069.503            0   -17193.282    248.01786    33767.303 
 1390000     295.1794   -19122.942            0   -17230.333     299.1576    33803.365 
 1400000     281.9719   -19026.824            0   -17218.899    301.99541    33892.282 
 1410000    299.91634   -19104.521            0    -17181.54   -794.34172    34117.093 
 1420000    293.95291   -19033.657            0   -17148.913   -266.51334    34040.191 
 1430000    288.49039   -19101.741            0    -17252.02   -745.95811     33830.57 
 1440000    302.78003   -19034.753            0   -17093.411   -224.99655    33668.257 
 1450000    296.62294    -18988.56            0   -17086.696    77.892378    34068.463 
 1460000    296.46637   -19058.589            0   -17157.729   -247.92138    33854.282 
 1470000    307.31283   -19132.479            0   -17162.075   -515.68552    34000.721 
 1480000    300.93031   -19098.076            0   -17168.594   -94.366363    34192.887 
 1490000    303.28381   -19108.125            0   -17163.554   -71.225864    33833.814 
 1500000    292.98822   -19067.376            0   -17188.817     491.4322    33824.861 
 1510000    305.73165    -19042.76            0   -17082.494   -231.97886     34118.11 
 1520000    308.15111    -19025.76            0   -17049.981    308.18877    33960.877 
 1530000    294.49351   -19150.676            0   -17262.465   -545.75478    34150.025 
 1540000    301.86365   -19097.635            0   -17162.169    -283.7458    33667.781 
 1550000    300.86374   -18999.782            0   -17070.728   -429.97325    34253.005 
 1560000    297.12406   -19065.318            0   -17160.241   -433.03784    34048.755 
 1570000    288.39279   -19087.816            0   -17238.722   -64.299549    33897.278 
 1580000    302.18246    -18980.59            0    -17043.08    -395.3893    34022.198 
 1590000    299.63569   -19116.894            0   -17195.713   -553.88478     33994.96 
 1600000    292.49935   -19046.131            0   -17170.706    688.56278    33660.759 
 1610000    297.52276   -19067.286            0   -17159.653    282.18427    33582.321 
 1620000    302.26171   -19034.996            0   -17096.978    446.12709    34085.427 
 1630000    299.42257   -19072.899            0   -17153.085    91.532702    34302.649 
 1640000    290.83187    -19106.45            0   -17241.717    367.99193     33773.36 
 1650000    297.11303   -19184.075            0   -17279.069    87.575734    33504.421 
 1660000    300.39889     -19099.1            0   -17173.025    460.55209    33992.218 
 1670000    295.45652   -19074.169            0   -17179.784   -300.95903    34083.302 
 1680000    300.14434   -19102.474            0   -17178.032   -181.72959    33869.675 
 1690000     298.0321   -19053.202            0   -17142.303   -8.8374817    34075.096 
 1700000    300.04434   -19088.529            0   -17164.728    339.08605    33927.534 
 1710000    299.81576   -19058.794            0   -17136.459   -1174.6861    34301.283 
 1720000    292.48696   -19014.038            0   -17138.693     532.5494     33718.06 
 1730000    298.88544   -19054.994            0   -17138.623   -283.80796     33673.78 
 1740000    298.90861   -19125.023            0   -17208.504   -459.24639    33839.445 
 1750000    300.63868   -19055.185            0   -17127.573    307.51583    33767.347 
 1760000    293.47066   -19056.534            0   -17174.882     878.5521    33796.419 
 1770000    292.14627   -19028.115            0   -17154.954    337.30632    33691.449 
 1780000    301.05228   -19058.056            0   -17127.792     207.3478     33619.41 
 1790000    301.96066    -19118.28            0   -17182.192    4.0538173    33841.791 
 1800000    296.66117   -19120.374            0   -17218.265   -607.32966     34152.58 
 1810000    285.01057   -19035.047            0   -17207.639    510.75318    33698.993 
 1820000    302.15549   -19058.715            0   -17121.378   -32.131419    33618.556 
 1830000    294.90498   -19135.614            0   -17244.765    174.77613    33848.241 
 1840000    295.32753   -19083.906            0   -17190.348     905.3761     33831.09 
 1850000    297.98255   -19075.115            0   -17164.534    1219.5048    34119.482 
 1860000    304.13194   -19069.715            0   -17119.705   -437.06872    34108.933 
 1870000    305.03179   -19125.731            0   -17169.952   -734.14188    34053.058 
 1880000    302.22109   -19014.369            0   -17076.611    494.32945    33871.653 
 1890000    304.04105   -19168.656            0   -17219.229    619.30007    33692.744 
 1900000    294.68919   -19143.821            0   -17254.356   -625.37706    34010.675 
 1910000     295.8544   -19166.035            0   -17269.099   -361.18985    33475.966 
 1920000    299.47072   -19042.946            0   -17122.823   -404.69625     34483.93 
 1930000    296.32459   -19056.116            0   -17156.165   -721.97306    33753.531 
 1940000    301.00436    -18989.31            0   -17059.354   -380.34558    34172.011 
 1950000     299.8305    -19135.67            0    -17213.24   -494.20391    33728.601 
 1960000    300.84155   -19122.014            0   -17193.102   -217.86007    33860.733 
 1970000    297.90309   -19138.024            0   -17227.952   -210.59808     33937.69 
 1980000    305.91217   -19119.114            0    -17157.69    92.176261    33741.788 
 1990000    305.55015   -19121.417            0   -17162.315   -163.61196    34196.417 
 2000000    298.15608   -19083.998            0   -17172.304    37.121987    33919.011 
 2010000    290.99844   -19087.005            0   -17221.204   -82.683604    34214.222 
 2020000    303.40573   -19038.839            0   -17093.486    12.364434    33732.443 
 2030000     296.0921   -18964.035            0   -17065.574    343.89691    33965.961 
 2040000    301.38508   -19047.701            0   -17115.303   -327.08682    34112.755 
 2050000    297.88546   -19084.428            0    -17174.47    814.66485    33809.482 
 2060000    299.95471   -19074.488            0   -17151.262    201.02541    33947.892 
 2070000    295.66153   -19108.131            0   -17212.431   -655.42648    34178.709 
 2080000    300.88631   -19043.971            0   -17114.772    403.90965     33850.08 
 2090000    293.27246   -19015.264            0   -17134.882    795.11847    33783.293 
 2100000    296.54567   -19079.839            0   -17178.471    538.55961    33632.643 
 2110000    299.69804   -18928.417            0   -17006.836    122.10839    34165.002 
 2120000    305.95697    -19057.58            0   -17095.869    527.59986    34027.479 
 2130000    295.89182   -19000.916            0   -17103.739   -496.85965    34309.889 
 2140000    305.24832   -19078.477            0    -17121.31    9.9314964    33804.083 
 2150000    304.86371   -19165.333            0   -17210.631    526.23432    33576.147 
 2160000     292.7087   -19060.359            0   -17183.592    38.209557    33867.978 
 2170000    302.15378   -19129.848            0   -17192.522    -1173.468    34233.724 
 2180000    296.07486   -19046.943            0   -17148.594    233.57096    34045.059 
 2190000    298.65822   -19113.645            0   -17198.732    746.30071    33930.387 
 2200000    304.97421   -19098.216            0   -17142.806     1177.444    33616.399 
 2210000    300.76222   -19111.707            0   -17183.303    314.49095     33558.94 
 2220000    307.48787   -19027.642            0   -17056.116   -164.86102    34168.786 
 2230000    294.54012   -19044.055            0   -17155.545   -121.73875    33644.746 
 2240000    303.65004   -19069.292            0   -17122.373    308.41658    33687.362 
 2250000    303.10763    -19085.47            0   -17142.028    349.82289     33708.78 
 2260000    300.21282   -19083.978            0   -17159.097   -120.06112    33649.067 
 2270000    306.63148   -19014.383            0   -17048.347   -215.37071    34345.738 
 2280000    288.33449   -19115.217            0   -17266.496    619.38479    34060.491 
 2290000    297.83767   -19045.498            0   -17135.845    51.931015    33795.776 
 2300000    295.59026   -19017.417            0   -17122.174   -515.55568    34120.827 
 2310000    299.29665    -19072.85            0   -17153.843     -4.15401    33753.112 
 2320000    302.11674   -19075.294            0   -17138.206    924.56277    33610.424 
 2330000    296.42109   -18986.203            0   -17085.634    -259.0662    33928.336 
 2340000    292.11276   -18987.526            0    -17114.58   -38.133393    34168.239 
 2350000    299.15598   -19080.349            0   -17162.244   -579.92577    34262.531 
 2360000    301.91089   -19118.785            0   -17183.016      202.334    33597.534 
 2370000    301.83924   -19105.051            0   -17169.742   -239.09968     34057.32 
 2380000    303.92781   -19109.169            0   -17160.469    39.061024    33955.267 
 2390000    304.66804   -19015.215            0   -17061.769   -597.76563    33940.308 
 2400000    302.19338     -19045.1            0   -17107.519   -358.24679     33958.05 
 2410000    290.90218   -19109.516            0   -17244.332    498.30966    33875.277 
 2420000    298.56165   -19078.193            0   -17163.899    166.00211    33826.463 
 2430000    298.72105    -19051.34            0   -17136.023   -251.22382    34276.207 
 2440000    295.42882   -19087.622            0   -17193.415    318.83837    33933.075 
 2450000    292.32398    -19079.75            0   -17205.449    313.13178    33851.634 
 2460000    304.25747   -19050.738            0   -17099.924   -220.71864    34467.053 
 2470000    300.79629    -19136.78            0   -17208.158    641.78942     33603.36 
 2480000    298.36509   -19008.893            0   -17095.859    93.527752    33941.338 
 2490000    299.25566   -19091.181            0   -17172.436    110.73838    34115.139 
 2500000    304.60545   -19052.487            0   -17099.442   -406.26672    34513.596 
 2510000    300.99238   -19097.303            0   -17167.424    226.16619    33959.518 
 2520000     307.7081   -19083.397            0   -17110.458    321.84587    33675.585 
 2530000    287.61785   -19038.405            0   -17194.279    -415.6715    34294.661 
 2540000    310.58892   -19153.438            0   -17162.028   -76.030105    33768.853 
 2550000    296.43683   -19103.811            0    -17203.14   -193.94976    34303.667 
 2560000     297.4198   -19027.382            0   -17120.409   -248.30212     34303.39 
 2570000    300.62272   -19084.036            0   -17156.527   -76.675256    34045.475 
 2580000    291.33753   -19077.423            0   -17209.447   -351.32838    33965.633 
 2590000     295.4128   -19081.597            0   -17187.492   -269.42801    33835.624 
 2600000    296.14722    -19048.92            0   -17150.106    180.03618    33644.454 
 2610000     297.7042   -19021.183            0   -17112.386    -372.0861    34211.031 
 2620000    299.80633   -19142.014            0   -17219.739   -269.95082    33975.855 
 2630000    291.82315   -19057.556            0   -17186.467   -150.74594    34031.624 
 2640000    299.37234   -19019.229            0   -17099.737   -696.28425    34207.195 
 2650000    295.00259   -19118.639            0   -17227.164    407.71346    33396.018 
 2660000    311.79316   -19122.046            0   -17122.915    356.83867    33533.417 
 2670000    298.68221   -19062.016            0   -17146.948   -353.56059    34023.137 
 2680000    291.95115   -19048.635            0   -17176.726   -418.67458     34469.78 
 2690000    306.05927   -19034.545            0   -17072.178   -34.603768    33963.741 
 2700000      302.237   -19072.152            0   -17134.292      710.811    33840.565 
 2710000    300.00584   -19095.132            0   -17171.578   -621.52154    34121.532 
 2720000    298.06603   -19139.065            0   -17227.948    249.91511    34066.999 
 2730000    296.30145   -19053.897            0   -17154.094    1043.9566    33745.604 
 2740000    292.62262   -18999.766            0   -17123.551    398.15579    33799.553 
 2750000     296.0166   -19107.776            0     -17209.8    239.70752    34181.614 
 2760000    294.16389   -19123.561            0   -17237.464   -17.587206     33705.08 
 2770000    301.73151   -19054.957            0   -17120.339   -879.83876    33987.336 
 2780000    298.85365   -19068.716            0    -17152.55    -70.00372    34107.572 
 2790000    293.69532   -19158.877            0   -17275.784    140.74792    33634.745 
 2800000    295.81236   -19147.784            0   -17251.117      -77.672    33421.577 
 2810000    295.69005   -19072.655            0   -17176.773   -60.067159    33833.738 
 2820000    289.49631   -19107.537            0   -17251.367    161.42556    33513.435 
 2830000    298.60186   -18987.638            0   -17073.085   -488.36899    34369.455 
 2840000    305.63251   -19158.229            0   -17198.598    420.74739    33934.716 
 2850000    292.28748   -19107.201            0   -17233.135   -864.36997    34238.202 
 2860000    301.24846   -19070.945            0   -17139.423   -135.59815    33768.985 
 2870000    301.53963   -19045.775            0   -17112.386     102.9613    33655.215 
 2880000    300.48651   -19046.183            0   -17119.547    264.35667    34328.974 
 2890000     303.2713   -19011.827            0   -17067.336    647.89105    33843.663 
 2900000    292.62268   -19127.915            0   -17251.699   -257.36448      33965.9 
 2910000    306.40452   -19107.865            0   -17143.284    312.09826    34449.357 
 2920000    298.87914   -19130.357            0   -17214.027   -10.649132    34095.384 
 2930000    299.86108   -19096.784            0   -17174.157    86.658448    33803.369 
 2940000    298.33244   -19136.979            0   -17224.155    357.79104    33720.223 
 2950000      295.644   -18994.144            0   -17098.557    193.66217    34099.656 
 2960000    283.97575   -19104.603            0    -17283.83   -405.23353    33976.785 
 2970000    296.96318   -19147.249            0   -17243.203    174.30899    33497.752 
 2980000    301.89925   -19106.405            0   -17170.711    775.63667    33568.504 
 2990000    291.19831   -19086.467            0   -17219.384   -115.76834    34054.759 
 3000000    296.85293   -19073.671            0   -17170.333    -90.78558    34044.883 
 3010000    288.91173   -19108.994            0   -17256.572   -41.737153    33873.924 
 3020000    302.42053    -19038.05            0   -17099.013   -592.61915     33939.42 
 3030000    302.54613   -19106.159            0   -17166.317   -234.67801    34224.766 
 3040000    296.95954   -19104.973            0   -17200.951    196.24428    34390.767 
 3050000    303.28708   -19064.523            0    -17119.93   -200.68902    34233.292 
 3060000    293.33719   -19071.138            0   -17190.342   -537.34869    33771.821 
 3070000    293.57507   -19064.392            0   -17182.071   -677.61617    33870.225 
 3080000     297.4657   -19157.325            0   -17250.057   -799.94078    34079.459 
 3090000    294.93147   -19059.169            0    -17168.15   -403.16252    34225.933 
 3100000    296.01226    -19104.28            0   -17206.332    616.45369    33987.976 
 3110000    300.57594    -19131.81            0   -17204.601    268.68922    33684.182 
 3120000    302.06315   -19073.476            0   -17136.731    -979.5001    34230.947 
 3130000    298.66975   -19111.395            0   -17196.407   -392.29504    34138.795 
 3140000    296.25004   -19061.675            0   -17162.202    173.43661    33761.274 
 3150000    304.13974     -19111.9            0    -17161.84    489.70404    33861.477 
 3160000    301.89646   -19185.647            0   -17249.971   -339.52859    33692.833 
 3170000    304.35513   -19172.588            0   -17221.147    391.32552    33567.784 
 3180000    302.63371   -19077.382            0   -17136.979   -505.87337    34086.039 
 3190000    292.59605   -19079.044            0   -17202.999   -439.69759    34115.165 
 3200000    302.05802   -19068.168            0   -17131.455    299.67231    34349.246 
 3210000    290.56765   -19082.319            0    -17219.28    541.81662    33969.332 
 3220000    309.68696   -19012.647            0    -17027.02    440.39119    33739.239 
 3230000    302.87532   -19116.524            0   -17174.572    639.82418    33910.171 
 3240000    303.45815    -19031.04            0   -17085.351   -632.09369     34235.51 
 3250000    303.33262   -19116.388            0   -17171.503    398.02065     34052.34 
 3260000    299.12711    -19243.37            0    -17325.45    304.71388    33921.324 
 3270000    299.50668   -19115.154            0     -17194.8    524.34824     33859.41 
 3280000    299.58094   -19076.043            0   -17155.213   -539.08222    34090.391 
 3290000    295.37545   -19120.698            0   -17226.833   -488.07959    33992.302 
 3300000    297.68448   -19082.606            0   -17173.935    746.49816    33835.868 
 3310000    295.74272   -19089.993            0   -17193.773    170.43134    33795.918 
 3320000    311.48538   -19053.227            0   -17056.069    367.74091    34237.103 
 3330000    289.83113   -19072.893            0   -17214.576    1035.2919    33594.769 
 3340000     303.1958   -19111.048            0    -17167.04    508.15145     33886.34 
 3350000    302.27758   -19117.027            0   -17178.907   -49.577305    34058.965 
 3360000    295.93811   -19173.633            0    -17276.16   -390.27895     33611.09 
 3370000    283.46492   -19008.846            0   -17191.347   -885.78389    33794.077 
 3380000    295.25593   -19143.458            0   -17250.359    501.83331    33517.778 
 3390000    304.89416   -19013.643            0   -17058.746   -653.45906    34345.698 
 3400000    296.93762    -19127.87            0   -17223.988   -395.78234    34083.658 
 3410000    298.98979   -19082.614            0   -17165.574   -224.53536    33835.154 
 3420000    296.63816   -19067.602            0    -17165.64    219.67386    33778.376 
 3430000     303.8226   -19137.864            0   -17189.838    479.09801    33648.898 
 3440000    298.91272    -19138.11            0   -17221.565   -839.26912    33806.556 
 3450000    296.70323   -19146.015            0   -17243.637   -189.73459    34079.231 
 3460000    306.51411   -19070.881            0   -17105.598    708.97679    33928.313 
 3470000    296.35802   -19014.951            0   -17114.786    -299.7831    33943.617 
 3480000    302.68013   -19035.847            0   -17095.146    417.11815     33837.45 
 3490000    301.06725   -19071.083            0   -17140.724    292.89465    33707.713 
 3500000     297.2999   -19087.334            0    -17181.13    296.70375    33823.212 
 3510000    300.45515   -19055.305            0    -17128.87   -165.12765    34492.453 
 3520000    291.13106   -19038.016            0   -17171.365   -543.61304    33735.838 
 3530000     296.6476   -19049.214            0   -17147.192    4.9619507    33877.537 
 3540000    309.33407   -19101.398            0   -17118.033   -113.78343    34028.582 
 3550000    291.30431   -19039.513            0   -17171.751   -1026.8999    34156.292 
 3560000    300.49775    -19081.37            0   -17154.662    65.617499    33982.963 
 3570000    304.71942   -19092.419            0   -17138.642    1083.2368    33819.121 
 3580000    298.66836   -19211.123            0   -17296.145   -175.69157    33812.393 
 3590000    309.78298   -19055.404            0   -17069.161   -222.88102    33915.811 
 3600000    307.09849   -19058.995            0   -17089.965    341.07485    34227.891 
 3610000    300.95021   -19044.252            0   -17114.642   -96.654013    34242.221 
 3620000    302.18342   -19149.175            0   -17211.659   -418.39892    34243.151 
 3630000    297.43305   -19093.713            0   -17186.654    -153.7405    33839.026 
 3640000    311.14863    -19089.73            0   -17094.731   -66.776889    33495.194 
 3650000    302.66425   -19157.055            0   -17216.456    9.4232548    33861.992 
 3660000    300.22376   -18996.699            0   -17071.748    894.46694    33724.429 
 3670000    294.79644   -19155.429            0   -17265.276    557.20878    33744.201 
 3680000    291.75063   -19121.847            0   -17251.223   -505.71013    34050.774 
 3690000    304.72438   -19027.599            0   -17073.791    690.92419    33829.097 
 3700000    300.51161   -19156.913            0   -17230.116     233.2693    33951.141 
 3710000    299.24034   -19084.839            0   -17166.193    371.03124    33920.115 
 3720000    288.14958   -19068.423            0   -17220.888   -42.228628    34050.938 
 3730000    296.84488   -19094.702            0   -17191.415   -469.81143     34140.58 
 3740000    295.93224   -19017.434            0   -17119.999   -39.857521    34246.229 
 3750000    303.33636    -19068.35            0   -17123.442    404.99641    34001.837 
 3760000    302.15928   -19089.929            0   -17152.567   -134.67262    33823.162 
 3770000    296.92626    -19083.45            0   -17179.642    486.61364    34215.218 
 3780000     300.4691   -19091.498            0   -17164.973   -181.46178    33911.706 
 3790000    295.42004   -19171.082            0   -17276.931   -18.862762    33433.707 
 3800000    298.63427   -19128.058            0   -17213.298    123.09207    34091.982 
 3810000    292.61192   -19048.178            0   -17172.032   -243.49145    33921.296 
 3820000    294.21909   -19035.928            0   -17149.477    170.78525    33702.864 
 3830000    296.80744   -19090.333            0   -17187.287   -73.135457    33908.721 
 3840000     307.2749   -19125.863            0   -17155.702    151.56897    34183.504 
 3850000    294.36818   -19019.776            0   -17132.369   -11.516822    33992.743 
 3860000    301.80723   -19113.047            0   -17177.943    141.75433    33907.907 
 3870000    304.43427    -19152.98            0   -17201.032    188.08113    34162.198 
 3880000    309.26729    -19154.32            0   -17171.384     116.5517    34103.577 
 3890000    296.67392   -19057.351            0    -17155.16    32.657117    33913.012 
 3900000    297.65607   -19135.775            0   -17227.287    449.16141    33493.409 
 3910000    301.70392   -19105.638            0   -17171.196   -833.89596    34304.129 
 3920000    302.73996    -19060.54            0   -17119.455    104.00762     34041.54 
 3930000    304.01652   -19069.957            0   -17120.687    1147.6638    33607.636 
 3940000    289.65595   -19091.826            0   -17234.633   -370.88397    33916.456 
 3950000    301.33298    -19044.74            0   -17112.677     716.9188    34228.726 
 3960000    303.57962   -19077.568            0     -17131.1    781.50284    33808.606 
 3970000    304.35266   -19112.358            0   -17160.933   -119.48423    34035.407 
 3980000    300.53203   -19118.945            0   -17192.017   -348.83125    34041.541 
 3990000    288.60962   -19164.725            0    -17314.24    483.39877    33652.705 
 4000000    299.55986   -19126.824            0   -17206.129    343.22072     34039.12 
 4010000    297.73329    -19128.81            0   -17219.826    81.578621    34302.958 
 4020000     292.2452   -19055.309            0   -17181.514   -654.75278    34349.848 
 4030000    294.12288   -19069.837            0   -17184.003    328.08827    33375.226 
 4040000    294.92036   -19126.992            0   -17236.044    124.45969    34339.984 
 4050000    294.55404    -19064.15            0   -17175.552     75.25964    34193.023 
 4060000    294.71925    -19057.44            0   -17167.782   -474.31499    34052.905 
 4070000    307.58892   -19150.077            0   -17177.902     752.3476    33595.089 
 4080000    305.23082   -19119.031            0   -17161.975    450.43396    33816.169 
 4090000    289.38438   -18974.176            0   -17118.724   -412.28386    34048.745 
 4100000    297.68372   -19173.627            0   -17264.962   -242.66406    33722.475 
 4110000     297.1746    -19083.71            0   -17178.309    82.512417     33974.75 
 4120000    301.10662   -19107.542            0    -17176.93    67.002773    33551.056 
 4130000    289.33603   -19098.744            0   -17243.602    225.47999    33374.809 
 4140000    296.60153   -19019.627            0     -17117.9     91.92096    33764.183 
 4150000    302.88203   -18985.876            0   -17043.881   -430.26571    34215.974 
 4160000    298.71838   -19017.603            0   -17102.304   -981.79093    34555.455 
 4170000    296.78517   -19184.125            0    -17281.22    205.62829    33982.958 
 4180000    298.36941   -19054.822            0    -17141.76    143.71863    33583.896 
 4190000    283.47765    -19191.81            0    -17374.23   -774.07712    33921.432 
 4200000    304.01341   -19147.763            0   -17198.514    539.95019    33721.212 
 4210000    299.68276   -19014.309            0   -17092.826   -212.60741    34087.179 
 4220000    300.29664    -19158.95            0   -17233.531    501.29619    33694.266 
 4230000    288.37839    -19066.77            0   -17217.768   -231.10178     33969.01 
 4240000    304.35575   -18994.453            0   -17043.008    -552.2022    34258.985 
 4250000    300.60686   -19020.359            0   -17092.951    583.69286    33683.893 
 4260000    299.61441   -19101.539            0   -17180.495      586.695    33518.469 
 4270000    301.61548    -19033.65            0   -17099.775   -370.79824    34100.965 
 4280000    296.18744   -19020.425            0   -17121.354    342.42756    33836.513 
 4290000    288.60899   -19097.498            0   -17247.017   -102.39284    33915.596 
 4300000    301.47055   -19108.058            0   -17175.112    1177.9408    33749.927 
 4310000    299.76836   -19101.473            0   -17179.442   -14.385209    34074.581 
 4320000    294.64382    -19106.76            0   -17217.586    334.50606    34230.147 
 4330000     295.9224   -19049.238            0   -17151.866    351.19906    33886.681 
 4340000    301.80354   -19106.981            0   -17171.901    340.47272    33730.587 
 4350000    295.69619   -19005.348            0   -17109.426    549.62904     33658.08 
 4360000    304.73677   -19033.414            0   -17079.527   -416.64898    33896.644 
 4370000    296.48124   -19057.476            0   -17156.521     235.1017    33996.828 
 4380000    305.05484   -19065.177            0    -17109.25   -211.26209    34051.299 
 4390000    292.99668   -19117.765            0   -17239.151   -1015.0772    34238.554 
 4400000    298.47926    -19050.34            0   -17136.574    408.35681    34310.858 
 4410000    293.04569   -19067.503            0   -17188.576   -656.72601    34259.027 
 4420000    300.86601   -19081.914            0   -17152.845    -51.95858    34166.832 
 4430000    297.35094   -19102.896            0   -17196.364    -514.0201    33876.731 
 4440000    294.59909   -19171.069            0   -17282.181    58.319175    34170.658 
 4450000    290.19457   -19120.233            0   -17259.586   -151.90047    33674.153 
 4460000    299.49422    -19138.66            0   -17218.387   -352.71022    33983.618 
 4470000    295.26565   -19071.397            0   -17178.236     408.8613    33641.799 
 4480000    307.28999   -19014.477            0   -17044.219    450.48202    33871.568 
 4490000    289.48226   -19127.864            0   -17271.784    342.31681    34247.146 
 4500000    304.29627   -19051.649            0   -17100.585   -397.95989    34171.682 
 4510000    297.23778   -19016.953            0   -17111.147   -399.89698    34088.612 
 4520000    299.99515   -19130.976            0    -17207.49   -290.07308    34237.733 
 4530000    301.64396   -19064.101            0   -17130.044    243.33507    33984.083 
 4540000    293.35381   -19054.048            0   -17173.145    134.68528    33776.267 
 4550000    300.11848   -19089.682            0   -17165.405    421.44381    34000.609 
 4560000    291.91424   -19158.453            0    -17286.78    439.71436    33767.366 
 4570000    298.03869   -19029.641            0     -17118.7    335.45795    33904.624 
 4580000    293.31829   -19014.673            0   -17133.998    245.42142    33884.327 
 4590000    297.31659   -19039.875            0   -17133.564     3.450706    33879.309 
 4600000    302.24732   -19113.187            0   -17175.261     76.25816    33765.165 
 4610000    291.38308   -18973.103            0   -17104.835   -474.44839    34033.953 
 4620000    292.39848   -19092.586            0   -17217.808    -698.0527    33551.269 
 4630000    293.13627   -19036.579            0    -17157.07    597.61715    33933.947 
 4640000    302.82333   -19058.103            0   -17116.483    -31.63537    34029.287 
 4650000    296.44287   -19081.378            0   -17180.669    92.952077    34484.877 
 4660000     290.9176   -19020.953            0   -17155.671    344.09936    33448.863 
 4670000    296.53438   -19168.128            0   -17266.832    1116.8856    33699.751 
 4680000    296.05544   -19196.485            0   -17298.259    49.436113    33848.184 
 4690000    297.56526   -19088.907            0   -17181.001    166.81011    33657.934 
 4700000    288.82995   -19120.107            0    -17268.21   -233.36784    34063.096 
 4710000    292.49586   -19131.824            0   -17256.422    -571.5173    33912.479 
 4720000    289.87727   -19096.088            0   -17237.475   -415.77112    34033.999 
 4730000    298.50213   -19117.051            0   -17203.138   -28.934332    33750.276 
 4740000    297.29978   -19228.138            0   -17321.934    530.93616    33386.374 
 4750000    294.59002     -19063.9            0   -17175.071   -714.60579    34104.461 
 4760000    294.56022   -19113.462            0   -17224.824   -781.92156    34228.204 
 4770000    300.87927   -19013.819            0   -17084.665    47.355064    33422.784 
 4780000    293.35598   -19069.738            0   -17188.821    381.32964     33830.47 
 4790000    291.84636   -19094.895            0   -17223.657   -189.91002    33849.495 
 4800000    312.46278   -19089.932            0   -17086.507     537.3648      33899.7 
 4810000    290.92554   -19028.459            0   -17163.125    86.157888    34185.563 
 4820000    291.64346   -19080.127            0    -17210.19     313.4989    33686.052 
 4830000    304.98454     -19148.6            0   -17193.124    30.354965    33849.663 
 4840000    308.24548   -19060.675            0    -17084.29    550.97903    33363.853 
 4850000    297.61699   -19118.218            0    -17209.98    688.57337    33766.301 
 4860000     290.1143   -19068.089            0   -17207.957     336.9731    33692.815 
 4870000    299.26038   -19080.554            0   -17161.779    784.54253    33692.738 
 4880000    299.62427   -19124.729            0   -17203.621    98.416435    34046.341 
 4890000    296.28863   -19037.496            0   -17137.776   -364.17161    34208.383 
 4900000    295.19789   -19095.851            0   -17203.124    614.25555    33743.363 
 4910000    289.36669   -19171.644            0   -17316.305    410.13182    33613.584 
 4920000    301.30076   -19124.198            0   -17192.341    521.47603    33965.902 
 4930000    301.61376   -19075.345            0   -17141.481    362.11665    33734.905 
 4940000    290.83703   -19026.163            0   -17161.397   -320.17166    34149.282 
 4950000    307.44386   -19088.825            0    -17117.58    590.15711    33492.196 
 4960000    295.30965   -18979.116            0   -17085.672    402.31901    33944.371 
 4970000    299.55665   -19131.275            0   -17210.601    245.57181    33857.766 
 4980000    296.14018   -19129.488            0    -17230.72   -435.24574    34187.209 
 4990000    292.07952   -19052.971            0   -17180.239    178.86477    33886.558 
 5000000    294.55616   -19062.883            0   -17174.271   -57.630393    34164.159 
Loop time of 5156.38 on 128 procs for 5000000 steps with 3152 atoms

Performance: 167.559 ns/day, 0.143 hours/ns, 969.673 timesteps/s
99.4% CPU use with 128 MPI tasks x no OpenMP threads

MPI task timing breakdown:
Section |  min time  |  avg time  |  max time  |%varavg| %total
---------------------------------------------------------------
Pair    | 1141.3     | 1378.4     | 1602.4     | 297.1 | 26.73
Bond    | 0.48724    | 0.5807     | 0.89234    |   9.3 |  0.01
Kspace  | 2103.8     | 2317.9     | 2530.9     | 222.6 | 44.95
Neigh   | 141.89     | 145.93     | 149.65     |  24.2 |  2.83
Comm    | 536.86     | 600.9      | 675.14     | 128.8 | 11.65
Output  | 0.042423   | 0.044634   | 0.057174   |   2.0 |  0.00
Modify  | 526.91     | 630.05     | 678.82     | 140.6 | 12.22
Other   |            | 82.61      |            |       |  1.60

Nlocal:    24.625 ave 31 max 13 min
Histogram: 1 0 2 14 6 19 37 22 21 6
Nghost:    2808.24 ave 2846 max 2780 min
Histogram: 7 14 25 23 14 14 11 6 8 6
Neighs:    8863.68 ave 12076 max 5044 min
Histogram: 1 2 7 23 22 25 22 13 6 7

Total # of neighbors = 1134551
Ave neighs/atom = 359.946
Ave special neighs/atom = 1.90355
Neighbor list builds = 435458
Dangerous builds = 0
reset_timestep 0

#################### 2) Obtaining average volume in NPT ######################
# Getting the average volume of the system
variable Volume equal vol
fix VoluAve all ave/time 1 ${Npnpt} ${Npnpt} v_Volume file volume.dat
fix VoluAve all ave/time 1 5000000 ${Npnpt} v_Volume file volume.dat
fix VoluAve all ave/time 1 5000000 5000000 v_Volume file volume.dat


# Thermo style for outputing system properties to the log file
thermo_style custom density
thermo_modify flush yes

variable Dens equal density
fix DensAve all ave/time 1 ${NBR} ${NBR} v_Dens file density.dat
fix DensAve all ave/time 1 100000 ${NBR} v_Dens file density.dat
fix DensAve all ave/time 1 100000 100000 v_Dens file density.dat

run ${Npnpt}
run 5000000
PPPM initialization ...
  extracting TIP4P info from pair style
  using 12-bit tables for long-range coulomb (../kspace.cpp:321)
  G vector (1/distance) = 0.309489
  grid = 30 30 30
  stencil order = 5
  estimated absolute RMS force accuracy = 0.00384882
  estimated relative force accuracy = 1.15906e-05
  using double precision FFTs
  3d grid and FFT values/proc = 2475 256
Per MPI rank memory allocation (min/avg/max) = 8.199 | 8.21 | 8.217 Mbytes
Density 
   1.1510156 
   1.1565918 
   1.1539655 
   1.1674453 
   1.1602502 
   1.1482209 
   1.1620639 
   1.1540753 
   1.1452629 
   1.1473404 
   1.1725564 
   1.1633413 
   1.1503653 
   1.1705297 
   1.1476332 
   1.1571187 
   1.1526513 
   1.1606113 
   1.1591832 
   1.1527555 
   1.1711899 
   1.1625063 
   1.1761633 
   1.1428118 
   1.1714882 
   1.1653661 
   1.1648979 
   1.1652884 
   1.1802958 
   1.1476175 
   1.1565061 
   1.1526984 
   1.1537303 
   1.1469183 
   1.1503576 
   1.1587268 
   1.1641788 
   1.1559475 
   1.1473215 
   1.1626121 
   1.1561311 
   1.1716165 
   1.1607395 
   1.1628363 
    1.172808 
   1.1616897 
   1.1594938 
   1.1582518 
   1.1428741 
   1.1504999 
   1.1575507 
   1.1602985 
   1.1521536 
   1.1466539 
   1.1640329 
   1.1550472 
   1.1526166 
   1.1480981 
   1.1590484 
   1.1517034 
   1.1510571 
   1.1627821 
    1.158095 
   1.1562313 
   1.1590012 
   1.1598314 
   1.1565604 
   1.1499246 
   1.1648395 
   1.1645097 
   1.1630876 
   1.1393034 
    1.147014 
   1.1518606 
   1.1636875 
   1.1745415 
   1.1639166 
   1.1675691 
   1.1611634 
   1.1471262 
   1.1620911 
   1.1641643 
   1.1619046 
   1.1498853 
   1.1686942 
   1.1559099 
   1.1722513 
   1.1723213 
   1.1535362 
   1.1532025 
     1.13941 
   1.1681674 
   1.1565375 
   1.1569544 
   1.1804784 
   1.1650634 
   1.1664011 
   1.1429667 
   1.1405743 
   1.1647905 
   1.1431072 
   1.1710549 
   1.1660602 
   1.1573293 
   1.1486838 
   1.1524763 
     1.14853 
   1.1512427 
   1.1577877 
   1.1412969 
   1.1506454 
   1.1539206 
    1.141114 
   1.1456197 
   1.1573961 
   1.1474381 
   1.1487316 
   1.1623165 
   1.1491832 
   1.1527817 
   1.1582194 
   1.1478007 
   1.1533766 
   1.1547353 
   1.1547612 
   1.1738111 
   1.1503844 
   1.1487991 
   1.1620213 
   1.1555109 
   1.1554802 
     1.15201 
    1.174987 
   1.1447693 
   1.1603719 
   1.1509447 
   1.1631727 
   1.1436182 
   1.1615229 
   1.1632291 
   1.1461357 
   1.1546377 
   1.1533344 
   1.1555183 
   1.1637081 
   1.1471936 
   1.1726092 
   1.1655906 
   1.1535659 
   1.1605512 
   1.1658161 
   1.1381626 
    1.157754 
   1.1618693 
   1.1572423 
   1.1533461 
   1.1500302 
   1.1618356 
   1.1469556 
   1.1654468 
   1.1523698 
    1.143006 
   1.1587156 
   1.1658376 
    1.160648 
    1.157376 
   1.1519479 
   1.1442199 
   1.1448776 
   1.1559892 
   1.1483768 
   1.1683709 
   1.1483972 
   1.1505244 
   1.1639692 
   1.1660049 
   1.1471917 
   1.1552526 
   1.1472842 
   1.1687825 
   1.1522437 
   1.1688009 
   1.1730952 
   1.1664161 
    1.149513 
   1.1724149 
   1.1487443 
   1.1526491 
   1.1572178 
   1.1648713 
   1.1598727 
   1.1814733 
   1.1434684 
   1.1583857 
    1.152193 
   1.1511413 
   1.1728629 
   1.1633167 
   1.1563129 
   1.1603795 
    1.165843 
   1.1580796 
   1.1628699 
   1.1567345 
   1.1557749 
   1.1530785 
   1.1568055 
   1.1406082 
   1.1752258 
   1.1480419 
   1.1618395 
   1.1487156 
   1.1635175 
   1.1578667 
   1.1547973 
   1.1692803 
   1.1511536 
   1.1719456 
   1.1487019 
   1.1496529 
   1.1603746 
   1.1456235 
   1.1601971 
   1.1531777 
   1.1643964 
   1.1558099 
   1.1649728 
    1.156484 
   1.1477245 
    1.170369 
   1.1592113 
   1.1607604 
   1.1599192 
   1.1560573 
   1.1447348 
   1.1648886 
    1.178494 
   1.1475073 
   1.1625769 
   1.1714179 
   1.1407183 
   1.1669764 
   1.1423925 
   1.1701495 
   1.1521854 
   1.1659785 
   1.1638155 
   1.1611907 
   1.1552807 
   1.1410135 
   1.1620941 
   1.1526774 
   1.1628998 
   1.1529872 
   1.1503705 
   1.1613279 
   1.1664281 
   1.1460005 
   1.1452543 
   1.1712913 
   1.1558851 
   1.1602102 
   1.1587238 
   1.1617803 
   1.1511999 
   1.1687583 
   1.1530299 
    1.151907 
   1.1606501 
   1.1437206 
    1.162708 
    1.161683 
   1.1535538 
   1.1645903 
   1.1703448 
   1.1554475 
   1.1604254 
   1.1433481 
   1.1599478 
   1.1610575 
   1.1564401 
   1.1688273 
   1.1654236 
   1.1458095 
   1.1606802 
   1.1591942 
   1.1512526 
   1.1577573 
   1.1686145 
   1.1698267 
   1.1791605 
   1.1590014 
   1.1648778 
   1.1676801 
   1.1570426 
   1.1756915 
   1.1657214 
    1.157991 
    1.164025 
   1.1535797 
   1.1761989 
   1.1711656 
   1.1469072 
   1.1569356 
   1.1526143 
   1.1610302 
   1.1632524 
   1.1483821 
   1.1663754 
   1.1629794 
   1.1531325 
   1.1595043 
    1.152178 
   1.1504842 
   1.1552879 
   1.1733505 
   1.1745994 
   1.1631749 
   1.1646741 
   1.1705896 
   1.1721582 
   1.1701068 
    1.156332 
   1.1578367 
   1.1566447 
   1.1516283 
   1.1596163 
   1.1599538 
    1.159574 
   1.1519867 
   1.1520813 
   1.1636785 
   1.1668452 
   1.1491513 
   1.1563695 
   1.1506608 
   1.1457473 
   1.1613515 
   1.1545345 
   1.1662602 
   1.1557385 
    1.152192 
   1.1768319 
   1.1730633 
   1.1686386 
   1.1702807 
   1.1591021 
   1.1701779 
   1.1675891 
   1.1519314 
   1.1676919 
   1.1648007 
   1.1594937 
   1.1697708 
   1.1527895 
   1.1642403 
   1.1562639 
     1.16818 
   1.1597693 
   1.1653157 
   1.1591794 
   1.1537955 
   1.1585885 
   1.1808561 
   1.1727123 
   1.1656741 
   1.1647063 
   1.1750809 
   1.1595597 
    1.166877 
   1.1601534 
   1.1623629 
   1.1700678 
   1.1612595 
   1.1523245 
   1.1681993 
   1.1476952 
   1.1688193 
   1.1642724 
   1.1554928 
   1.1605593 
   1.1645023 
   1.1734443 
   1.1508488 
   1.1661489 
   1.1605555 
   1.1548895 
   1.1599774 
   1.1559154 
   1.1456227 
   1.1519498 
   1.1578461 
   1.1594701 
   1.1478928 
   1.1461408 
   1.1749811 
   1.1568992 
    1.158544 
   1.1700097 
   1.1535502 
   1.1547397 
   1.1599138 
   1.1596305 
   1.1698429 
   1.1669625 
   1.1583909 
   1.1645781 
   1.1659503 
   1.1582217 
   1.1450698 
   1.1590824 
   1.1649351 
   1.1561846 
   1.1534287 
   1.1548103 
     1.16862 
   1.1554731 
    1.173209 
   1.1678286 
   1.1650581 
   1.1652455 
   1.1546831 
   1.1578347 
   1.1594497 
   1.1558617 
   1.1643754 
   1.1610106 
   1.1414921 
   1.1566999 
   1.1598724 
   1.1553724 
   1.1548139 
   1.1637649 
   1.1773999 
   1.1529196 
   1.1666024 
   1.1578906 
   1.1620106 
   1.1758821 
   1.1634601 
   1.1594567 
   1.1567748 
   1.1670785 
   1.1674057 
    1.158855 
   1.1713597 
   1.1543508 
   1.1669692 
   1.1685716 
   1.1609987 
   1.1542999 
   1.1653923 
   1.1526777 
   1.1613938 
   1.1593015 
   1.1580906 
   1.1550783 
   1.1465881 
   1.1691254 
   1.1635758 
   1.1606675 
   1.1646471 
   1.1676658 
   1.1509052 
   1.1539308 
   1.1383181 
   1.1697791 
   1.1597343 
   1.1663072 
   1.1557388 
   1.1607527 
   1.1527589 
   1.1564609 
   1.1736603 
   1.1577439 
   1.1668019 
   1.1669396 
   1.1525407 
    1.148593 
   1.1582471 
    1.157935 
   1.1522926 
   1.1590811 
   1.1600972 
   1.1646681 
   1.1644909 
   1.1589725 
   1.1566813 
   1.1535317 
   1.1540997 
   1.1575168 
   1.1668152 
   1.1503953 
   1.1683636 
   1.1703626 
    1.157439 
   1.1715912 
   1.1478205 
    1.160275 
    1.162924 
   1.1548421 
Loop time of 5229.35 on 128 procs for 5000000 steps with 3152 atoms

Performance: 165.221 ns/day, 0.145 hours/ns, 956.142 timesteps/s
99.4% CPU use with 128 MPI tasks x no OpenMP threads

MPI task timing breakdown:
Section |  min time  |  avg time  |  max time  |%varavg| %total
---------------------------------------------------------------
Pair    | 1141       | 1374.6     | 1590.2     | 294.8 | 26.29
Bond    | 0.48599    | 0.58056    | 0.8499     |   9.6 |  0.01
Kspace  | 2122.8     | 2328.7     | 2536.3     | 220.5 | 44.53
Neigh   | 142.15     | 146.2      | 150.39     |  25.5 |  2.80
Comm    | 540.88     | 606.46     | 684.44     | 134.0 | 11.60
Output  | 0.017868   | 0.021891   | 0.037907   |   1.9 |  0.00
Modify  | 582.66     | 688.45     | 738.12     | 135.8 | 13.17
Other   |            | 84.4       |            |       |  1.61

Nlocal:    24.625 ave 37 max 14 min
Histogram: 3 1 13 30 28 22 28 1 1 1
Nghost:    2814.86 ave 2840 max 2782 min
Histogram: 2 6 11 16 13 19 16 21 17 7
Neighs:    8897.16 ave 13165 max 5356 min
Histogram: 1 14 11 18 35 23 18 6 1 1

Total # of neighbors = 1138836
Ave neighs/atom = 361.306
Ave special neighs/atom = 1.90355
Neighbor list builds = 435524
Dangerous builds = 0
reset_timestep 0

#################### 3) Initializing the NVT ensemble ####################
# scaling the size of the system to the average volume
variable sidesize equal (f_VoluAve^(1.0/3.0))    # get the volume
variable xlow equal xlo
variable ylow equal ylo
variable zlow equal zlo
variable xhig equal (xlo+${sidesize})
variable xhig equal (xlo+32.374744564139)
variable yhig equal (ylo+${sidesize})
variable yhig equal (ylo+32.374744564139)
variable zhig equal (zlo+${sidesize})
variable zhig equal (zlo+32.374744564139)
change_box all x final ${xlow} ${xhig} y final ${ylow} ${yhig} z final ${zlow} ${zhig}
change_box all x final 0.641938868764115 ${xhig} y final ${ylow} ${yhig} z final ${zlow} ${zhig}
change_box all x final 0.641938868764115 33.0166834329031 y final ${ylow} ${yhig} z final ${zlow} ${zhig}
change_box all x final 0.641938868764115 33.0166834329031 y final 0.641938868764115 ${yhig} z final ${zlow} ${zhig}
change_box all x final 0.641938868764115 33.0166834329031 y final 0.641938868764115 33.0166834329031 z final ${zlow} ${zhig}
change_box all x final 0.641938868764115 33.0166834329031 y final 0.641938868764115 33.0166834329031 z final 0.641938868764115 ${zhig}
change_box all x final 0.641938868764115 33.0166834329031 y final 0.641938868764115 33.0166834329031 z final 0.641938868764115 33.0166834329031
  orthogonal box = (0.641939 0.641939 0.641939) to (33.0167 33.0542 33.0542)
  orthogonal box = (0.641939 0.641939 0.641939) to (33.0167 33.0167 33.0542)
  orthogonal box = (0.641939 0.641939 0.641939) to (33.0167 33.0167 33.0167)
unfix DensAve
unfix VoluAve

# changing the ensemble to NVT
unfix integrate
fix integrate all nvt temp ${Temp} ${Temp} 100.0
fix integrate all nvt temp 298 ${Temp} 100.0
fix integrate all nvt temp 298 298 100.0


# Initializing the whole system with very small timesteps in the NVT ensemble
timestep 0.001
run ${Ninvtpre}
run 10000
PPPM initialization ...
  extracting TIP4P info from pair style
  using 12-bit tables for long-range coulomb (../kspace.cpp:321)
  G vector (1/distance) = 0.309653
  grid = 30 30 30
  stencil order = 5
  estimated absolute RMS force accuracy = 0.0038229
  estimated relative force accuracy = 1.15126e-05
  using double precision FFTs
  3d grid and FFT values/proc = 2475 256
Per MPI rank memory allocation (min/avg/max) = 8.199 | 8.21 | 8.218 Mbytes
Density 
   1.1588652 
   1.1588652 
Loop time of 7.6591 on 128 procs for 10000 steps with 3152 atoms

Performance: 0.113 ns/day, 212.753 hours/ns, 1305.636 timesteps/s
99.5% CPU use with 128 MPI tasks x no OpenMP threads

MPI task timing breakdown:
Section |  min time  |  avg time  |  max time  |%varavg| %total
---------------------------------------------------------------
Pair    | 1.2719     | 2.0338     | 3.0976     |  23.4 | 26.55
Bond    | 0.00069277 | 0.00082264 | 0.0017219  |   0.0 |  0.01
Kspace  | 2.7977     | 3.8159     | 4.5373     |  16.6 | 49.82
Neigh   | 0          | 0          | 0          |   0.0 |  0.00
Comm    | 0.94292    | 1.0355     | 1.0994     |   3.6 | 13.52
Output  | 2.098e-05  | 2.6129e-05 | 6.1565e-05 |   0.0 |  0.00
Modify  | 0.60291    | 0.66764    | 0.71998    |   3.7 |  8.72
Other   |            | 0.1054     |            |       |  1.38

Nlocal:    24.625 ave 38 max 14 min
Histogram: 2 4 18 25 25 34 15 3 1 1
Nghost:    2820.63 ave 2851 max 2788 min
Histogram: 11 6 11 8 13 22 29 15 10 3
Neighs:    8924.19 ave 13305 max 5371 min
Histogram: 3 7 16 23 28 30 10 9 1 1

Total # of neighbors = 1142296
Ave neighs/atom = 362.404
Ave special neighs/atom = 1.90355
Neighbor list builds = 0
Dangerous builds = 0
timestep 0.01
run ${Ninvtpre}
run 10000
PPPM initialization ...
  extracting TIP4P info from pair style
  using 12-bit tables for long-range coulomb (../kspace.cpp:321)
  G vector (1/distance) = 0.309653
  grid = 30 30 30
  stencil order = 5
  estimated absolute RMS force accuracy = 0.0038229
  estimated relative force accuracy = 1.15126e-05
  using double precision FFTs
  3d grid and FFT values/proc = 2475 256
Per MPI rank memory allocation (min/avg/max) = 8.199 | 8.21 | 8.218 Mbytes
Density 
   1.1588652 
   1.1588652 
Loop time of 8.09964 on 128 procs for 10000 steps with 3152 atoms

Performance: 1.067 ns/day, 22.499 hours/ns, 1234.623 timesteps/s
99.4% CPU use with 128 MPI tasks x no OpenMP threads

MPI task timing breakdown:
Section |  min time  |  avg time  |  max time  |%varavg| %total
---------------------------------------------------------------
Pair    | 1.2332     | 2.0394     | 2.7772     |  21.4 | 25.18
Bond    | 0.00069287 | 0.00082468 | 0.0013979  |   0.0 |  0.01
Kspace  | 3.3099     | 4.0575     | 4.8111     |  14.7 | 50.09
Neigh   | 0.0011724  | 0.001192   | 0.001225   |   0.0 |  0.01
Comm    | 1.0521     | 1.1371     | 1.2029     |   3.3 | 14.04
Output  | 3.1519e-05 | 4.3367e-05 | 0.00010764 |   0.0 |  0.00
Modify  | 0.68694    | 0.75556    | 0.80564    |   3.3 |  9.33
Other   |            | 0.1081     |            |       |  1.33

Nlocal:    24.625 ave 32 max 15 min
Histogram: 1 3 11 5 25 30 18 20 10 5
Nghost:    2822.34 ave 2851 max 2793 min
Histogram: 6 6 11 18 14 26 25 17 3 2
Neighs:    8923.62 ave 12691 max 5461 min
Histogram: 3 4 15 21 27 22 21 10 4 1

Total # of neighbors = 1142223
Ave neighs/atom = 362.38
Ave special neighs/atom = 1.90355
Neighbor list builds = 4
Dangerous builds = 0
timestep 0.1
run ${Ninvtpre}
run 10000
PPPM initialization ...
  extracting TIP4P info from pair style
  using 12-bit tables for long-range coulomb (../kspace.cpp:321)
  G vector (1/distance) = 0.309653
  grid = 30 30 30
  stencil order = 5
  estimated absolute RMS force accuracy = 0.0038229
  estimated relative force accuracy = 1.15126e-05
  using double precision FFTs
  3d grid and FFT values/proc = 2475 256
Per MPI rank memory allocation (min/avg/max) = 8.199 | 8.21 | 8.218 Mbytes
Density 
   1.1588652 
   1.1588652 
Loop time of 7.45753 on 128 procs for 10000 steps with 3152 atoms

Performance: 11.586 ns/day, 2.072 hours/ns, 1340.927 timesteps/s
99.5% CPU use with 128 MPI tasks x no OpenMP threads

MPI task timing breakdown:
Section |  min time  |  avg time  |  max time  |%varavg| %total
---------------------------------------------------------------
Pair    | 1.3334     | 2.0464     | 2.5806     |  17.7 | 27.44
Bond    | 0.00070282 | 0.00082741 | 0.0012309  |   0.0 |  0.01
Kspace  | 3.0281     | 3.5774     | 4.283      |  13.1 | 47.97
Neigh   | 0.013717   | 0.013842   | 0.014013   |   0.1 |  0.19
[...]
98160000    298.62509    298.06574   -671.19757    4.6520119   -19042.169    1914.7012   -17127.468 
98170000    299.32434     297.8705    21.500263   -31.544944   -19158.122    1919.1846   -17238.937 
98180000    296.38007    297.74809   -223.85034    11.539122   -18969.023    1900.3067   -17068.716 
98190000    302.90135    298.31952    369.21087    47.315937    -19162.25    1942.1194   -17220.131 
98200000    306.49907    297.77213   -48.266001   -42.018215   -19123.551     1965.187   -17158.364 
98210000    298.52045    297.74719    22.184581    26.382796   -19131.233    1914.0303   -17217.203 
98220000    295.41398    297.90059   -524.07142   -22.003608   -19086.786    1894.1124   -17192.674 
98230000    295.17451    298.38899    -87.71432   -15.207375   -19152.128     1892.577    -17259.55 
98240000    292.88542    297.51143     243.8059    86.487912   -19068.731       1877.9   -17190.831 
98250000    305.88025    298.04211    310.92197    90.045274   -19158.727    1961.2192   -17197.508 
98260000    300.60917    297.77636    191.33172   -2.3198285   -19085.366    1927.4226   -17157.943 
98270000    304.36896    298.00107   -81.955287    24.217802   -19139.658    1951.5293   -17188.128 
98280000    297.79131     297.9046    421.22834    34.505723   -19104.394    1909.3552   -17195.039 
98290000    290.50269     297.9525    182.15054    83.223839   -19075.868    1862.6226   -17213.246 
98300000    291.50452    297.97143    98.749541     20.50981   -19047.746    1869.0461     -17178.7 
98310000    306.16389    297.76302    830.37586    50.656164    -19093.02    1963.0379   -17129.982 
98320000     296.1188    298.35378    140.48723     80.22257   -19080.088    1898.6315   -17181.456 
98330000     296.4011    298.12291   -109.39371   -42.298326   -19130.263    1900.4416   -17229.822 
98340000    299.76529    298.03561    -193.4614    86.211048   -19009.553    1922.0118   -17087.541 
98350000    303.76537     298.2972   -598.78961   -21.385121   -19108.341    1947.6592   -17160.682 
98360000     295.3381    298.00649   -442.34834   -46.297998   -19092.672    1893.6259   -17199.046 
98370000     295.8099    298.01401    -193.7839  -0.46698385   -19072.996     1896.651   -17176.345 
98380000    298.64484     297.6588   -386.16664  -0.67733158   -18991.896    1914.8278   -17077.068 
98390000    302.57195    298.48228    43.558011    23.473406   -19113.795    1940.0074   -17173.788 
98400000    295.37034    297.91003   -532.67243    37.424106   -19068.242    1893.8326   -17174.409 
98410000    303.43404    297.77904    157.68968   -39.310025   -19095.432    1945.5348   -17149.897 
98420000    297.68946    298.16929   -372.74057    194.10847   -19018.275    1908.7022   -17109.573 
98430000    302.79635    297.96019    70.174182   -33.483677   -18951.199    1941.4461   -17009.753 
98440000    300.12938    298.08993   -295.15707   -33.890322   -19064.355    1924.3463   -17140.009 
98450000    305.00359    298.00221   -586.15397   -77.023527   -19059.413    1955.5984   -17103.815 
98460000    297.83111    297.50164     826.0824    22.554744   -19049.215    1909.6104   -17139.605 
98470000    299.43293    297.97336   -433.11633    25.471877   -19112.182    1919.8808   -17192.301 
98480000    292.32156    297.61772   -629.54452   -15.732084   -19003.027    1874.2847   -17128.742 
98490000    291.90785    298.14717    260.11438     27.10334   -19146.743    1871.6321   -17275.111 
98500000    293.64556    297.57775    182.48414    7.6712031   -19044.329    1882.7738   -17161.556 
98510000    296.59882    297.78807   -122.21549   -32.873081   -19106.854    1901.7093   -17205.145 
98520000     293.3198    297.97435    63.943694   -37.443614   -19100.013    1880.6851   -17219.328 
98530000    311.29776    298.45903   -180.43876   -53.445979   -19119.353    1995.9548   -17123.398 
98540000    298.84872     297.8577   -835.81534    5.0619916   -19177.088     1916.135   -17260.953 
98550000    299.89579    297.51873   -210.55815   -24.116556   -19109.974    1922.8486   -17187.125 
98560000    297.39166     297.5836    260.76026   -25.843401   -19048.315    1906.7928   -17141.522 
98570000    298.50079    298.36896    957.16187    37.028341   -19048.797    1913.9042   -17134.892 
98580000    296.52912     298.8491   -463.00408     52.74208   -19130.014    1901.2624   -17228.752 
98590000    306.45745    298.58214    382.51785    95.756614   -19192.466    1964.9201   -17227.546 
98600000    301.38729    297.97815    670.67989   -96.147494   -19092.079    1932.4117   -17159.667 
98610000    299.39126    298.18894    168.34347   -48.975041   -19021.971    1919.6137   -17102.357 
98620000    292.99742    298.32492     101.7115   0.40419692    -19003.97    1878.6181   -17125.352 
98630000    297.04111    298.05075    568.50794    22.422094   -19081.623    1904.5452   -17177.077 
98640000    303.70779    298.28473   -214.47199    -9.385604   -19043.918    1947.2901   -17096.628 
98650000    287.45696    297.94018   -52.257063   -19.146991   -18982.507    1843.0943   -17139.413 
98660000    304.62393    297.77398   -261.24481   -33.105989   -18978.678    1953.1641   -17025.513 
98670000    298.56107    298.11364   -386.70248   -31.809072   -19026.736    1914.2907   -17112.446 
98680000    288.18315    298.36513   -729.96965    23.799303   -19148.557    1847.7504   -17300.806 
98690000    290.11692    298.33877   -236.59909   -86.834621   -19016.366    1860.1492   -17156.216 
98700000    295.78493    298.31082    269.68685   -21.749273   -19098.111    1896.4909    -17201.62 
98710000    293.02688    297.67303   -580.30624    -36.53915   -18985.903     1878.807   -17107.096 
98720000    301.13765    298.20397   -682.67971   -71.462762   -19118.342     1930.811   -17187.531 
98730000    289.08424    297.90666   -336.21657   -96.703777    -19122.68    1853.5279   -17269.152 
98740000    296.34777    298.37537   -337.09409   -31.968606   -19156.861    1900.0996   -17256.761 
98750000    294.46215    298.18547   -24.721821    56.382904   -19132.942    1888.0096   -17244.932 
98760000    302.76804    298.45185   -43.064701      14.5812   -18985.545    1941.2646   -17044.281 
98770000    286.77445    298.06718    -636.1439   -39.732675   -19090.929    1838.7182   -17252.211 
98780000    295.63339    298.28028   -190.28013   -41.628017   -19020.488    1895.5193   -17124.969 
98790000    305.91502    298.39168    267.88682   -36.370374   -19155.839    1961.4422   -17194.397 
98800000    296.42736    298.29795    22.054037   -43.537579    -19075.35      1900.61    -17174.74 
98810000     298.0124    297.68792   -762.04477   -44.371957   -19104.229    1910.7728   -17193.456 
98820000    301.56387    298.05255    715.06631   -106.10166   -19005.739    1933.5438   -17072.195 
98830000    295.46083    297.33045    53.625783   -2.6173586   -19145.032    1894.4128   -17250.619 
98840000    291.16607    297.88113   -18.055086    1.4233929   -19146.913     1866.876   -17280.037 
98850000    300.10508    298.15815   -989.42743     5.557675    -19078.46    1924.1904   -17154.269 
98860000    295.73768    297.62776   -731.96203   -92.663604   -19104.844    1896.1879   -17208.656 
98870000     301.5582    297.72992   -148.53549    22.996574   -19044.257    1933.5075    -17110.75 
98880000    302.29187    297.93516    345.47961    -69.51937   -19044.248    1938.2116   -17106.036 
98890000    304.42651    297.86411    168.80978    25.238061   -18974.129    1951.8983   -17022.231 
98900000    310.40304     297.7242   -170.60944   -47.761899   -19061.691    1990.2182   -17071.473 
98910000    299.37217    297.98669    75.090017   -48.778397   -19080.508    1919.4913   -17161.017 
98920000    297.02968    298.11396    185.65375   -21.145964   -19182.439    1904.4719   -17277.967 
98930000    304.63502    298.10206    522.34987    33.824709    -19082.88    1953.2352   -17129.645 
98940000    294.75072    297.78917    64.038065    73.959512    -19182.35    1889.8598    -17292.49 
98950000     288.7985    298.16576    32.521294   -8.6530646   -19064.482    1851.6958   -17212.786 
98960000    295.28939    298.16348    458.01752    -39.69443    -19116.25    1893.3136   -17222.936 
98970000    291.39494    297.83841   -504.07219   -49.333427   -19089.099    1868.3434   -17220.756 
98980000    293.67011    298.10749   -302.06011     87.94026   -19108.471    1882.9313   -17225.539 
98990000    302.53232    298.11499    260.95142   -18.125983   -19131.147    1939.7532   -17191.394 
99000000    299.50462    297.91711   -86.699709   -14.238934   -19131.501    1920.3405    -17211.16 
99010000    304.58056    297.85707   -626.71654    -91.29029   -19197.031     1952.886   -17244.145 
99020000    295.24279    298.03481    504.35835    36.044248   -19227.344    1893.0148   -17334.329 
99030000    289.04801    298.40511     275.9108     2.118864   -19135.577    1853.2956   -17282.281 
99040000    304.89192    298.13044     6.110857    37.203048   -19065.344    1954.8824   -17110.462 
99050000     308.0715    297.93796   -755.51918   -12.176512   -19017.917    1975.2689   -17042.649 
99060000    302.26105    298.05353    -562.3214   -94.187856    -18954.34    1938.0139   -17016.326 
99070000    294.19456    298.23467    612.79783    18.484002   -19016.546    1886.2938   -17130.252 
99080000    298.34707    297.99049   -343.22438    67.293792   -19131.721    1912.9186   -17218.802 
99090000    308.43932    297.75269   -247.05768   -34.571625   -19053.195    1977.6273   -17075.567 
99100000    308.96044    298.16938   -872.25243   -16.028926   -19089.753    1980.9686   -17108.785 
99110000    303.75551    297.92022     5.975983    2.6887156   -19113.647     1947.596   -17166.051 
99120000    307.89838    297.79589   -98.223008    92.137028   -19007.088    1974.1589   -17032.929 
99130000    304.81346    298.17237    139.64128    -65.68714   -19032.831    1954.3793   -17078.452 
99140000    291.98364    297.88415   -198.64841   -41.018371   -19082.356    1872.1181   -17210.238 
99150000    285.55836    297.96919   -343.85719    43.776449   -19217.741    1830.9209    -17386.82 
99160000    290.29905    297.89527   -614.35853   -58.968233   -19081.962    1861.3169   -17220.646 
99170000    294.64079    298.05607   -247.23254   -30.534467   -19081.531    1889.1549   -17192.376 
99180000    299.99917    298.00705   -98.091546   -6.6620237   -19097.427    1923.5114   -17173.916 
99190000    293.40735    298.03836    7.2175726    -49.77846   -19067.814    1881.2465   -17186.568 
99200000    302.34281    298.37553    100.77662   0.14513708   -19069.794    1938.5382   -17131.256 
99210000    300.40218    297.77413   -119.90709    14.456075   -19074.135    1926.0954   -17148.039 
99220000    297.37873    298.19288    342.59987   -14.428019   -19102.195    1906.7099   -17195.485 
99230000    302.14499    297.90745   -227.50644    90.160703    -19052.98    1937.2698    -17115.71 
99240000    300.05587    298.00241   -119.26658   -64.443804   -19084.603    1923.8749   -17160.729 
99250000    289.50936    297.58135     359.6905   -10.608708   -19025.166    1856.2536   -17168.913 
99260000     298.7854    298.00982    -18.34303    1.1739283   -19145.539    1915.7291   -17229.809 
99270000    307.42998    297.93857    112.70217   -6.6349142   -19015.696    1971.1557    -17044.54 
99280000    297.12014    297.34435    275.04219   -24.170499   -19017.544    1905.0518   -17112.492 
99290000    294.28046    297.87368   -601.63188   -13.026941   -19147.231    1886.8447   -17260.387 
99300000    305.24258    297.72477   -23.349234   -10.539676   -19077.886    1957.1307   -17120.755 
99310000    301.31309    297.92873    -275.0938   -71.299476   -19023.908    1931.9359   -17091.972 
99320000    299.71084    297.78564    337.02525    52.290335    -19135.14    1921.6627   -17213.477 
99330000     295.1685     298.1545    214.98525    47.131836   -19063.311    1892.5385   -17170.772 
99340000    292.97978    297.33977   -777.38469   -67.899212   -19209.934     1878.505   -17331.429 
99350000    294.27069    297.53548    64.446403    4.0907022   -19044.918     1886.782   -17158.136 
99360000    296.64201    297.95222   -351.25122   -49.470735   -19105.547    1901.9862   -17203.561 
99370000    290.66933    297.63472     266.3273   -35.545246   -19067.172    1863.6911   -17203.481 
99380000    296.69313    297.87625     479.4476    76.981049   -19124.713     1902.314   -17222.399 
99390000    304.30009    297.79606    7.5639111    83.820226   -19105.554    1951.0877   -17154.467 
99400000    301.43714      297.955    401.41493   -1.1447572   -19043.039    1932.7312   -17110.308 
99410000    303.36573    297.70843   -120.55291   -3.6637877   -19032.473    1945.0968   -17087.376 
99420000    295.05393    298.27945   -285.56498    0.9209376   -19103.758    1891.8039   -17211.954 
99430000    304.88741      297.804   -192.01503    6.2056289   -19056.166    1954.8534   -17101.312 
99440000    294.08489     298.2819    420.39299    11.490228   -19049.459    1885.5907   -17163.868 
99450000    300.24096    298.15954    -147.6308    95.408658   -19053.681    1925.0617    -17128.62 
99460000    292.78051    298.48254   -420.18354    5.4886759   -19095.661    1877.2273   -17218.434 
99470000    301.25836    297.48697    347.73228   -26.482959   -19192.163     1931.585   -17260.578 
99480000    299.58503    297.63083    181.51464   -23.388304   -19053.167     1920.856   -17132.311 
99490000    305.80903    298.16532    235.85661   -29.249433     -19113.9    1960.7626   -17153.137 
99500000    287.05923    297.77813    182.46688    7.2322302   -19162.476    1840.5441   -17321.932 
99510000     302.9378    297.91285    281.34052    17.612878   -19076.677    1942.3531   -17134.324 
99520000    291.88638     297.5571    566.84658   -2.6148637   -18970.204    1871.4944   -17098.709 
99530000     311.8565    298.11235    51.882329    3.0963698   -19079.039    1999.5373   -17079.502 
99540000    299.29283    298.00049    134.47635   -70.884951   -19085.856    1918.9826   -17166.873 
99550000    291.88381    298.06469   -374.99174   -12.158174   -19070.452     1871.478   -17198.974 
99560000    297.66628    297.80511   -354.26625   -17.846203   -19098.198    1908.5536   -17189.645 
99570000    297.19139     298.0633    274.86629    23.552428   -19004.453    1905.5087   -17098.944 
99580000    301.40437    297.95869     88.78519   -30.029061   -19009.485    1932.5212   -17076.964 
99590000     296.5623    298.35295   -371.43483   -107.98061   -19131.775    1901.4752     -17230.3 
99600000    301.02432    298.50924   -91.948316   -27.936732    -19106.53    1930.0844   -17176.446 
99610000    295.27079    297.69273    -90.84354   -42.540425   -19086.687    1893.1944   -17193.493 
99620000    293.97544     297.7281    70.815464  -0.32696849   -19033.851    1884.8889   -17148.962 
99630000    300.87309    298.14841   -661.31814   -64.264933   -19121.263    1929.1147   -17192.148 
99640000    293.56363    297.35492    191.55313   -55.232552   -18972.428    1882.2485   -17090.179 
99650000    295.73906      297.775    -500.7553   -1.8977176   -19017.274    1896.1968   -17121.077 
99660000    296.45007    297.81644   -670.31444   -41.696413   -19070.072    1900.7556   -17169.316 
99670000    295.86435    297.81307    206.53525   -65.324638   -19153.127    1897.0001   -17256.127 
99680000    301.87171    298.36261   -564.86591   -12.197776   -19026.606    1935.5176   -17091.089 
99690000    297.12542    298.14235    -343.0437   -20.282919   -19073.093    1905.0857   -17168.007 
99700000    297.16906    298.06665    43.445161    48.934779   -19061.093    1905.3655   -17155.728 
99710000    293.51834    297.76482   -348.87529   -62.939471   -19074.445    1881.9581   -17192.487 
99720000    298.96027    297.57482   -849.34537   -44.369609    -19107.45    1916.8503   -17190.599 
99730000    301.83111    298.08791   -302.13348    -4.178733   -19066.268    1935.2573    -17131.01 
99740000    297.27094    297.86802     311.3966     28.66516   -19121.975    1906.0188   -17215.957 
99750000    299.77341    298.22283   -119.15895    47.900552   -19079.137    1922.0639   -17157.073 
99760000    294.47122    297.36706    390.47816    -18.85807   -19131.462    1888.0678   -17243.394 
99770000    298.00101    297.95006    80.212565   -54.297711   -19110.702    1910.6997   -17200.002 
99780000     313.0351    298.20179     2.843263    28.118358   -19202.175    2007.0942   -17195.081 
99790000    288.54271    297.71133   -358.54489   -17.354676   -19037.425    1850.0558   -17187.369 
99800000    292.69658    297.59682   -120.41368    7.4198095   -19135.465    1876.6892   -17258.776 
99810000    282.64536    297.83567   -49.002837    -24.67699    -19080.58    1812.2436   -17268.336 
99820000    302.21644    297.85761    44.374489    57.886582   -19159.472    1937.7279   -17221.744 
99830000    290.93344    298.73518    247.46774    42.366693   -19113.837    1865.3844   -17248.453 
99840000    284.58048    298.18485   -504.06074    85.430102    -19038.18     1824.651   -17213.529 
99850000    296.28146    298.08845    100.36032   -51.506945   -19116.859    1899.6745   -17217.185 
99860000    291.62764    298.15715   -3.9759604   -11.236294   -19123.037    1869.8355   -17253.201 
99870000    297.16624    298.20623    492.96982   -20.673109   -19105.479    1905.3474   -17200.132 
99880000    298.18481    298.42058    213.82661   -22.834478   -19086.928    1911.8783    -17175.05 
99890000    294.80621    298.25707     549.7268   -29.206603   -19080.718    1890.2156   -17190.502 
99900000    297.86212    298.17169    -331.7603   -27.132403   -19036.373    1909.8092   -17126.564 
99910000    297.76964    298.23694   0.99854114    105.92988   -19078.655    1909.2163   -17169.438 
99920000     300.4202    297.97234    199.16806   -38.653683   -19065.605    1926.2109   -17139.394 
99930000    299.44662    298.29294   -399.21527   -96.826001   -19109.801    1919.9686   -17189.832 
99940000    299.15971    297.98926   -128.54938   -23.701668   -19100.382     1918.129   -17182.253 
99950000    297.46443    298.30463   -99.943213    46.176494   -19059.873    1907.2593   -17152.614 
99960000    302.01209    297.78113   -741.83442   -15.404508   -19137.991    1936.4177   -17201.573 
99970000    295.94973    298.06932   -526.88921   -4.7942185    -19101.54    1897.5475   -17203.992 
99980000    298.35381    298.10041    344.51069    8.6714341   -19093.506    1912.9618   -17180.544 
99990000    293.28324    297.90821   -284.01498   -69.624661   -19029.369    1880.4507   -17148.918 
100000000    294.17598    298.27271     255.5715   -24.311876   -19108.736    1886.1747   -17222.561 
Loop time of 91746.8 on 128 procs for 100000000 steps with 3152 atoms

Performance: 188.344 ns/day, 0.127 hours/ns, 1089.956 timesteps/s
99.3% CPU use with 128 MPI tasks x no OpenMP threads

MPI task timing breakdown:
Section |  min time  |  avg time  |  max time  |%varavg| %total
---------------------------------------------------------------
Pair    | 19174      | 22966      | 26216      |1160.2 | 25.03
Bond    | 8.2717     | 9.8266     | 14.638     |  30.9 |  0.01
Kspace  | 38984      | 42458      | 46209      | 854.9 | 46.28
Neigh   | 2900.4     | 2925.1     | 2949.8     |  20.4 |  3.19
Comm    | 11341      | 12225      | 12869      | 328.0 | 13.32
Output  | 3.7464     | 86.221     | 101.84     | 169.8 |  0.09
Modify  | 8939.3     | 9528.2     | 10149      | 324.2 | 10.39
Other   |            | 1549       |            |       |  1.69

Nlocal:    24.625 ave 33 max 14 min
Histogram: 4 3 4 10 27 26 26 17 7 4
Nghost:    2828.86 ave 2867 max 2796 min
Histogram: 4 10 22 19 16 25 12 9 7 4
Neighs:    8919.33 ave 13647 max 4670 min
Histogram: 4 7 7 24 32 21 23 7 2 1

Total # of neighbors = 1141674
Ave neighs/atom = 362.206
Ave special neighs/atom = 1.90355
Neighbor list builds = 8624672
Dangerous builds = 0

quit
