3152
Atoms. Timestep: 0
O 18.2185 16.9986 6.63142
H 18.3778 17.8665 7.00238
H 17.2923 16.83 6.80452
O 22.1175 11.3936 21.7788
H 21.1681 11.4195 21.8976
H 22.314 10.471 21.6163
O 3.58344 21.9785 31.0615
H 3.68964 22.852 31.4384
H 3.56497 21.3916 31.8173
O 4.25039 3.35793 9.7739
H 4.29564 4.2564 10.1009
H 5.1481 3.15189 9.51332
O 6.10845 14.0487 28.94
H 6.14805 13.1108 28.7529
H 5.38291 14.1398 29.5577
O 29.5258 15.7501 6.65586
H 30.3142 15.5002 7.13766
H 28.8789 15.0856 6.89296
O 26.1587 6.03912 29.8112
H 25.8452 6.52759 30.5723
H 27.0411 6.37631 29.6564
O 22.9847 9.35525 17.0258
H 22.6271 9.03554 17.8542
H 22.6127 8.77317 16.3632
O 7.6257 9.78341 32.0652
H 7.43392 9.74119 31.1284
H 7.35488 10.6636 32.3262
O 31.0602 17.0677 4.93134
H 30.6287 17.6216 4.2808
H 30.3526 16.5455 5.30921
O 21.4061 14.9808 32.8906
H 21.8411 15.6757 32.3965
H 20.5764 15.3681 0.795012
O 21.34 22.0436 8.8834
H 22.0185 21.3784 8.99956
H 21.8178 22.8305 8.62118
O 0.690984 13.5886 12.3501
H 1.0865 12.7554 12.6063
H 32.4242 13.3536 11.6797
O 31.2118 11.2169 22.356
H 31.312 11.5932 21.4816
H 30.9438 11.9537 22.9051
O 23.2336 25.649 18.9689
H 22.7795 26.4899 19.0213
H 24.1246 25.8737 18.7009
O 15.5856 32.6098 9.19303
H 16.0321 1.0308 9.48229
H 14.6723 32.8738 9.08219
O 6.70556 21.034 29.0423
H 6.29644 20.3107 28.5673
H 7.00923 20.6421 29.8611
O 24.3207 31.739 20.4069
H 24.9446 31.4664 19.7341
H 24.0721 30.9263 20.8471
O 1.08561 12.4727 30.2514
H 0.768821 13.0604 29.5655
H 32.7052 12.3447 30.8255
O 28.6569 32.7274 6.56397
H 28.9175 32.4758 5.67797
H 27.7111 32.863 6.5065
O 32.5626 14.7037 3.81137
H 0.816034 15.4237 3.7542
H 31.841 15.0556 4.33267
O 30.3877 11.5656 30.9297
H 30.8012 11.396 30.0833
H 29.5669 11.0741 30.8987
O 4.99609 17.5764 7.69988
H 5.93167 17.4231 7.56793
H 4.81442 17.2183 8.56879
O 6.30968 3.6181 30.3344
H 6.12511 3.23994 31.1942
H 5.48451 4.02386 30.0686
O 29.6018 28.9374 22.0207
H 29.5969 29.8724 22.2255
H 30.5114 28.6684 22.1492
O 7.53265 25.49 8.06871
H 8.08257 25.6689 8.83149
H 6.71624 25.9569 8.24665
O 17.5556 25.0954 32.591
H 17.8491 24.2914 32.1625
H 17.5954 24.897 1.15185
O 26.2937 24.7117 19.3012
H 26.7174 24.5508 20.1443
H 27.0056 24.986 18.7232
O 3.23916 5.04883 32.1858
H 3.29194 4.49073 32.9617
H 2.97452 4.45672 31.4818
O 13.455 5.03287 18.0143
H 13.3806 5.94342 17.7286
H 13.4886 5.08301 18.9696
O 28.0028 13.1141 6.84045
H 27.1047 13.107 6.5094
H 28.4265 12.3769 6.4009
O 30.6105 27.9915 25.4725
H 30.2499 28.6886 26.0204
H 29.8434 27.5688 25.0863
O 7.67122 27.5562 14.8648
H 7.04093 28.2551 14.6904
H 7.33777 26.8046 14.3747
O 31.4776 12.3746 19.9133
H 31.4971 11.8645 19.1035
H 32.342 12.7829 19.9606
O 29.9477 18.5476 20.0067
H 29.4089 18.0307 19.4076
H 30.4459 19.1333 19.4367
O 24.6204 16.559 30.0412
H 24.7248 15.6141 29.9292
H 24.6762 16.9135 29.1539
O 30.2369 22.4331 11.519
H 29.9618 21.6301 11.9614
H 30.1482 23.1159 12.184
O 11.7489 25.2622 7.13577
H 11.6263 25.5113 6.21972
H 12.6449 24.9277 7.17568
O 29.4168 2.70509 7.44477
H 30.3513 2.6484 7.64398
H 29.1888 1.83638 7.11366
O 16.7422 12.4858 11.3079
H 16.6304 13.3476 10.9067
H 15.9744 12.3813 11.8699
O 12.2525 13.3594 10.9907
H 11.8046 14.2048 10.9596
H 13.0801 13.5425 11.4354
O 28.9881 21.8619 6.27593
H 28.06 21.9497 6.49309
H 29.3243 21.2292 6.91068
O 28.4233 6.7155 17.1556
H 27.5323 6.82339 17.4883
H 28.9608 6.60578 17.94
O 3.98106 2.81942 5.49402
H 3.39187 3.24385 4.87036
H 3.72146 1.89819 5.48067
O 28.3512 30.8786 18.2877
H 28.7614 30.8498 17.4233
H 28.7076 30.1186 18.7478
O 13.7816 7.45528 3.83683
H 12.9124 7.14509 4.09075
H 14.2432 7.58113 4.6659
O 29.3074 30.907 15.6833
H 28.8519 30.3192 15.0806
H 30.2192 30.6168 15.6585
O 7.0691 12.9223 16.5613
H 6.70575 13.451 15.8509
H 7.18947 13.5399 17.2827
O 8.73691 31.5025 31.228
H 9.12385 30.8289 31.7873
H 7.8882 31.1424 30.9707
O 16.851 22.3812 26.4932
H 16.5336 23.1168 27.017
H 17.4891 22.7702 25.895
O 22.7209 11.2845 27.2192
H 23.1364 12.1391 27.3345
H 22.5473 10.98 28.1099
O 12.0147 8.08753 30.9013
H 11.9565 8.21486 31.8482
H 12.846 7.63111 30.7712
O 12.8981 10.0515 13.3293
H 13.7017 9.53151 13.3382
H 12.2021 9.41495 13.1666
O 13.426 32.9942 19.9424
H 13.0942 32.8443 20.8276
H 12.6411 0.754056 19.4114
O 17.8747 23.7419 5.75667
H 17.3624 24.2406 6.39311
H 18.6582 24.2721 5.61105
O 28.2227 9.0644 7.95749
H 28.4495 8.15924 8.17074
H 27.5876 9.31695 8.62767
O 15.7438 26.2595 13.0085
H 15.434 27.0443 12.5564
H 14.9833 25.9501 13.5006
O 17.0974 4.66609 7.84345
H 16.7357 4.97469 7.01269
H 18.0241 4.90259 7.80435
O 26.2941 11.9028 14.2287
H 26.0961 11.0493 14.6143
H 27.1116 11.766 13.7501
O 11.7916 21.3254 27.6269
H 11.0787 21.1484 27.0132
H 11.4561 21.0343 28.4748
O 8.67183 10.7271 16.0708
H 8.45888 10.7437 15.1377
H 8.17028 11.4518 16.4443
O 15.3607 26.2009 31.2505
H 14.8189 26.4669 31.9935
H 16.2246 26.0385 31.6295
O 12.1959 21.1804 23.9339
H 12.9001 21.2067 24.5817
H 12.5967 21.5114 23.1301
O 3.87905 14.6234 30.5377
H 3.18485 15.1604 30.9197
H 3.69094 13.7357 30.8425
O 30.558 10.6107 13.9464
H 30.22 9.71704 13.889
H 31.4893 10.5031 14.1398
O 31.2913 10.7101 28.3319
H 32.0246 10.2042 27.9816
H 31.003 11.2538 27.5988
O 29.9596 7.08301 19.442
H 30.7977 7.50778 19.6251
H 29.3171 7.6006 19.9273
O 11.2354 4.29138 12.5195
H 11.6461 3.78839 11.8163
H 10.2974 4.23817 12.3364
O 16.2637 7.71264 31.2879
H 17.2084 7.59535 31.3881
H 16.1637 8.62007 31.0001
O 32.5556 10.5159 3.21215
H 32.717 9.58896 3.38795
H 32.5181 10.5762 2.25758
O 19.0717 7.74347 32.8734
H 19.6987 8.23386 1.03028
H 19.2044 6.83015 0.752572
O 16.3909 17.9705 20.2977
H 16.4865 17.0201 20.359
H 17.0666 18.2401 19.6755
O 17.8927 18.4247 10.0223
H 18.2685 18.7049 9.18773
H 18.29 17.57 10.1894
O 24.0001 14.0605 27.295
H 24.6402 13.7855 26.6387
H 24.4908 14.0773 28.1166
O 8.03449 8.49483 17.5213
H 7.58069 8.7435 18.3266
H 8.1132 9.31147 17.0282
O 3.52454 30.2581 2.6973
H 3.78388 30.5251 3.57916
H 2.94931 29.5053 2.83389
O 8.47727 18.7371 3.85163
H 8.26337 19.3192 3.12255
H 8.84339 17.9564 3.43595
O 21.6489 31.1752 6.55264
H 22.2513 30.4332 6.6068
H 21.4125 31.3592 7.46175
O 6.08615 24.0448 5.90309
H 6.53742 24.4624 5.16949
H 6.35907 24.5477 6.67042
O 23.1369 13.3116 8.04846
H 22.2473 12.9853 8.18418
H 23.1097 14.2176 8.35597
O 17.2254 0.667546 26.6287
H 16.2708 0.688819 26.5617
H 17.431 1.29046 27.3258
O 2.30541 23.4271 2.16336
H 2.54482 23.9531 1.40031
H 3.07259 22.8786 2.32699
O 0.872218 32.1382 26.041
H 1.44801 31.3956 25.8586
H 0.700109 32.0833 26.981
O 28.6457 31.6153 29.1394
H 28.413 30.8016 28.6922
H 29.4464 31.9079 28.704
O 26.4924 19.9572 13.3515
H 26.691 19.6372 14.2315
H 25.8891 19.3076 12.9904
O 14.3522 4.82997 10.9014
H 14.5717 3.91788 11.0915
H 13.7034 4.77939 10.1994
O 5.55427 17.8674 30.394
H 5.72985 16.9541 30.1676
H 6.34559 18.1588 30.8469
O 12.1856 3.06169 23.485
H 11.3952 3.47585 23.8312
H 12.8132 3.10139 24.2067
O 30.2503 30.8828 7.98503
H 29.8898 30.0556 7.66574
H 29.6097 31.5424 7.71895
O 3.24611 32.5469 4.78476
H 3.89229 31.9751 5.19915
H 3.71075 32.9372 4.0445
O 25.8039 3.45792 30.8386
H 26.3059 2.82666 30.3231
H 26.0323 4.30889 30.4645
O 6.54472 27.1874 25.3867
H 7.21981 26.7275 25.8857
H 5.74064 26.6995 25.5645
O 20.9081 29.0723 25.7042
H 20.6038 29.0429 24.7971
H 21.0832 28.1583 25.9283
O 2.82521 23.434 9.70472
H 2.11729 22.8129 9.53361
H 2.64828 23.7627 10.5861
O 13.4196 25.0984 25.5304
H 12.4771 25.0927 25.3634
H 13.7957 25.5398 24.7688
O 13.2832 25.7156 13.9698
H 12.6344 25.5538 13.2849
H 13.5101 24.8448 14.296
O 18.8165 27.3693 3.37355
H 19.2862 27.7945 4.09108
H 19.0354 26.4415 3.45994
O 19.6789 28.3514 5.88186
H 19.2063 28.4032 6.71263
H 20.5818 28.578 6.10487
O 0.752481 30.642 4.46183
H 1.62163 31.043 4.46599
H 32.7941 30.8005 3.57858
O 7.77985 20.9871 24.4499
H 8.53656 21.5065 24.1783
H 7.02788 21.5581 24.2928
O 1.90106 27.7897 11.575
H 2.58065 27.3869 12.1155
H 2.36802 28.1152 10.8054
O 6.84747 0.987406 23.261
H 7.4226 1.08063 22.5016
H 5.97739 1.21359 22.9323
O 21.2153 32.8476 13.6199
H 21.5699 32.4038 14.3904
H 21.574 32.3622 12.877
O 30.4726 6.95201 24.2182
H 30.421 6.29625 23.5228
H 31.3904 7.22368 24.2242
O 24.8291 30.6331 4.82216
H 25.5319 30.1575 4.37923
H 24.4095 29.9773 5.37903
O 18.4518 31.5277 8.67026
H 17.6716 32.0059 8.95109
H 18.3823 30.6781 9.10563
O 4.611 20.5721 5.15992
H 4.2944 21.0487 4.3925
H 3.8167 20.3248 5.63333
O 30.9703 27.1232 7.71381
H 30.5692 27.2815 8.56838
H 30.5414 26.3309 7.39049
O 1.64064 22.4062 25.7952
H 2.45765 22.044 26.1381
H 1.1573 21.6453 25.4733
O 5.68026 6.25794 7.74537
H 5.99362 5.45203 7.33481
H 5.31946 6.77103 7.02233
O 29.3715 8.76858 27.6726
H 29.1858 8.17777 28.4025
H 29.8814 9.47866 28.0625
O 30.7092 24.5292 0.895606
H 31.1973 24.0686 32.5878
H 30.2494 25.2287 32.8061
O 9.42195 24.1225 2.45263
H 9.38351 23.3279 1.92026
H 9.91221 24.7465 1.91739
O 23.181 9.15289 32.3521
H 23.7041 8.36144 32.4791
H 23.7721 9.87044 32.58
O 4.33622 32.4459 24.9429
H 4.31197 32.0205 24.0858
H 4.22924 31.7301 25.5693
O 30.7369 33.0082 20.6373
H 30.5828 32.7002 21.5303
H 30.0673 1.3027 20.4954
O 2.22834 9.98292 30.1002
H 1.744 10.7998 30.2203
H 1.87697 9.61233 29.2906
O 18.3192 0.81425 23.9681
H 17.5514 1.3345 23.7311
H 18.1321 32.8742 24.8525
O 12.244 27.2053 22.1497
H 12.3936 28.1042 21.8569
H 13.0476 26.9665 22.6116
O 28.8977 6.40518 7.67331
H 28.0021 6.14541 7.88934
H 29.3435 6.45592 8.51888
O 25.2284 5.21087 19.395
H 25.7418 5.80321 19.9444
H 25.7537 4.41209 19.3473
O 0.891405 2.50438 2.08108
H 32.8172 1.6632 1.99712
H 1.78172 2.2756 2.34797
O 28.4379 26.978 23.8155
H 28.9847 27.5884 23.3208
H 27.6709 26.8386 23.26
O 5.83715 3.30451 21.7388
H 5.55652 3.92786 22.4088
H 6.61941 3.70072 21.355
O 23.4299 15.6035 11.7172
H 22.8916 14.8777 12.0328
H 23.1926 15.6948 10.7944
O 17.5829 26.7469 7.71802
H 17.2239 27.1019 6.9048
H 16.9549 26.0755 7.98465
O 17.3897 27.6621 14.6233
H 16.9642 27.0944 13.9807
H 18.1747 27.1813 14.8856
O 1.84344 3.28345 18.6204
H 2.40218 3.44315 19.381
H 1.81895 4.12242 18.1602
O 16.2662 6.68066 27.1602
H 16.901 6.82192 26.4579
H 16.7376 6.15717 27.8082
O 3.74779 7.90354 16.0918
H 3.36328 8.66175 16.5317
H 3.31262 7.87422 15.2397
O 17.482 5.94943 16.1616
H 18.3625 5.59482 16.0381
H 16.9392 5.46697 15.5381
O 25.3086 13.1978 6.12082
H 24.919 13.3483 6.98209
H 24.9198 13.8697 5.56078
O 22.1404 13.623 13.063
H 22.2271 13.7447 14.0084
H 21.2206 13.8145 12.8797
O 12.5803 3.81637 14.9704
H 12.9576 2.937 14.9942
H 12.0733 3.83804 14.1588
O 9.10226 12.688 21.4598
H 9.92669 13.1579 21.3346
H 9.32471 11.9653 22.0468
O 6.38213 2.37801 12.2488
H 6.41308 1.55038 12.7287
H 6.45803 2.12493 11.3288
O 23.9969 8.77634 8.25862
H 23.9744 7.85676 7.99385
H 23.0762 9.0241 8.34388
O 4.41065 25.6987 26.2199
H 4.91729 25.0726 26.7371
H 4.4301 25.3464 25.3301
O 2.39164 11.7761 26.9333
H 1.77457 12.1139 26.2842
H 2.19012 10.8423 26.9928
O 32.0083 4.58198 8.79154
H 32.18 4.62901 7.85105
H 31.7627 3.6697 8.94531
O 5.12328 21.4257 12.0354
H 5.53 22.2272 11.7061
H 5.81442 20.7658 11.9804
O 16.121 1.32987 6.5718
H 15.4493 1.99047 6.40233
H 15.8036 0.856754 7.34099
O 11.6946 19.692 3.09455
H 12.2394 20.4463 2.86995
H 11.1332 19.5652 2.32974
O 7.12977 10.831 8.67735
H 6.23016 10.7901 8.35292
H 7.06834 11.328 9.49309
O 11.8841 24.9401 18.7398
H 12.6017 25.5021 18.4474
H 11.3601 25.4991 19.3136
O 1.41324 24.1971 23.9005
H 1.4866 23.4614 24.5085
H 2.31743 24.4677 23.741
O 17.1619 31.5424 17.165
H 16.2512 31.7807 16.992
H 17.4708 31.1618 16.3429
O 10.7014 32.9616 29.9373
H 10.1077 32.2519 30.1824
H 11.52 32.7564 30.3888
O 6.73593 29.1582 31.3666
H 6.3279 29.2742 32.2246
H 6.46301 29.9266 30.8652
O 21.8051 28.2619 19.161
H 21.8573 29.1977 19.3549
H 20.9646 27.9873 19.5275
O 3.93435 26.0183 18.0659
H 3.43451 25.2199 18.2358
H 4.62394 25.7455 17.4607
O 16.662 19.4665 14.3926
H 16.2351 19.5899 15.2404
H 16.3516 18.6132 14.0895
O 4.4438 23.9271 15.5034
H 5.18997 24.2548 15.0013
H 4.14012 23.1641 15.0115
O 12.2824 27.7395 15.5488
H 12.5356 26.9262 15.1123
H 11.9682 28.3035 14.842
O 6.83285 24.8459 2.66276
H 6.67665 25.5689 2.05521
H 7.77239 24.6753 2.59636
O 16.2613 8.08153 21.7612
H 15.7519 7.71952 22.4863
H 17.1235 8.25724 22.1379
O 31.7518 24.1339 8.30221
H 32.2255 23.312 8.42993
H 32.2016 24.7607 8.86887
O 15.2903 3.40303 17.4047
H 14.5007 3.91375 17.5835
H 14.9928 2.49323 17.405
O 26.448 11.0771 28.1541
H 26.8742 11.9281 28.0519
H 26.8643 10.6912 28.9247
O 15.8669 13.0081 24.0856
H 15.7934 12.1953 24.5857
H 16.3463 13.6025 24.6627
O 25.0295 13.9517 15.6263
H 25.1996 13.3803 14.8775
H 25.4593 13.5167 16.3627
O 15.5157 14.2336 5.19248
H 16.002 13.4603 5.4784
H 15.5531 14.2008 4.23657
O 2.22559 2.408 25.6743
H 1.81699 1.54326 25.713
H 3.05669 2.26076 25.2229
O 26.0091 7.80044 17.5107
H 25.1632 7.36299 17.4142
H 26.0962 8.33183 16.7194
O 23.2703 4.87772 1.91433
H 23.8146 5.50585 1.43956
H 22.9679 5.35707 2.68571
O 9.94735 12.0975 2.68579
H 9.63556 12.6804 1.99349
H 10.9016 12.1397 2.62342
O 12.6117 20.9933 31.8685
H 11.9749 20.974 31.1542
H 12.7666 21.9245 32.0269
O 1.0553 6.62876 32.7837
H 1.89898 6.19162 32.6681
H 32.9401 6.05327 0.996303
O 27.7395 6.78809 0.68421
H 26.8292 6.83195 32.7663
H 27.7171 6.21933 1.45378
O 11.6887 13.8167 21.5211
H 11.9312 14.0921 22.4052
H 12.4521 13.3355 21.2018
O 25.4679 27.1235 6.15657
H 24.6953 27.6597 6.33471
H 26.0942 27.3716 6.83661
O 21.3839 3.65494 11.7341
H 21.7907 4.26991 11.1238
H 20.4472 3.71435 11.546
O 4.81176 1.23735 2.74299
H 4.55226 2.15418 2.83419
H 5.73515 1.22311 2.99472
O 4.9534 11.523 11.2922
H 5.77538 11.944 11.5439
H 4.29041 12.204 11.4057
O 31.3947 1.9331 4.94992
H 31.9774 2.10697 4.2107
H 30.7773 1.28009 4.62039
O 6.93074 18.3788 25.0794
H 6.25087 18.5344 25.735
H 7.08015 19.236 24.6805
O 6.13556 21.5538 7.03611
H 5.97619 22.4752 6.83149
H 5.52733 21.0744 6.47359
O 31.7255 6.73296 29.1946
H 31.0597 6.38297 28.6027
H 32.1815 7.39691 28.6774
O 18.3449 24.9227 20.0744
H 19.2665 24.6987 19.9453
H 17.9147 24.0835 20.2387
O 17.1503 6.36843 12.5095
H 16.9006 6.18101 11.6047
H 17.5285 5.54913 12.8287
O 9.71304 5.26201 16.1686
H 9.6536 5.82726 16.9388
H 9.21752 5.72445 15.4927
O 23.7046 29.8343 28.0347
H 22.9294 30.2322 28.4311
H 23.6945 30.1407 27.1279
O 15.6268 5.49336 21.3732
H 16.2799 5.06717 21.9282
H 15.9101 6.40652 21.3271
O 16.7234 22.5293 20.6374
H 16.1257 22.3116 19.9221
H 17.331 21.7907 20.6756
O 13.0595 13.1885 27.8568
H 12.1116 13.3136 27.9008
H 13.2007 12.7098 27.04
O 30.149 13.5404 13.3425
H 30.3812 13.0839 14.1511
H 29.2216 13.7542 13.4453
O 25.1021 30.0165 12.4478
H 25.6731 29.6377 11.7794
H 25.5302 29.8047 13.2773
O 2.61747 19.5362 24.217
H 2.80635 18.5983 24.1879
H 2.99822 19.8828 23.4101
O 7.51359 17.0313 16.9129
H 7.45668 17.5968 17.6831
H 7.31999 17.6099 16.1754
O 17.9338 30.2892 14.9876
H 17.2793 30.6819 14.41
H 17.733 29.3533 14.9765
O 9.80282 27.3595 16.7803
H 10.5886 27.6497 16.3171
H 9.08886 27.5136 16.1616
O 10.606 24.7746 25.0307
H 10.1327 24.5149 25.8211
H 10.5963 23.9934 24.4776
O 24.2524 32.529 29.9418
H 23.5608 31.8991 30.1446
H 25.0658 32.0626 30.1342
O 31.384 14.2437 8.23401
H 31.1635 13.8171 9.06203
H 32.3218 14.4243 8.29937
O 31.6085 2.11314 14.9175
H 32.4115 1.59789 14.9945
H 31.4886 2.23123 13.9752
O 16.332 15.5462 17.2393
H 15.645 15.636 16.5788
H 16.9338 14.8983 16.873
O 21.2298 32.3308 8.98902
H 21.5985 0.83851 9.02932
H 20.2936 32.4545 9.14533
O 23.062 20.0052 14.7029
H 23.4388 19.9518 13.8246
H 23.8028 20.222 15.2691
O 18.8517 15.8317 10.1347
H 17.9733 15.5045 9.94092
H 19.428 15.3262 9.56149
O 10.7971 4.42499 5.39345
H 10.8526 5.37868 5.33326
H 10.7455 4.24638 6.33242
O 23.5319 19.9516 11.9114
H 22.6315 19.8005 11.624
H 23.9339 19.083 11.9083
O 9.2111 9.68007 4.11366
H 9.53543 10.4147 3.59281
H 9.99321 9.16805 4.31949
O 8.15904 22.9941 13.381
H 7.69245 23.8236 13.2781
H 7.90835 22.6842 14.2513
O 30.4292 5.39548 26.9239
H 31.1706 5.34334 26.3208
H 29.891 6.10911 26.5815
O 26.4908 27.5923 20.9932
H 26.4566 26.8862 20.3478
H 27.0851 28.2381 20.611
O 29.835 32.254 3.72481
H 30.6234 32.0901 3.20739
H 29.3434 31.434 3.67949
O 10.9283 10.3167 7.28639
H 11.6565 10.2036 6.67546
H 10.6936 9.42622 7.54752
O 30.3058 15.1436 20.1794
H 29.8451 15.348 19.3657
H 30.8076 14.3535 19.9791
O 23.8235 22.23 22.6009
H 24.2389 21.5514 22.0687
H 24.0956 23.0532 22.1953
O 26.4896 5.13254 5.7043
H 26.3015 5.22856 6.63789
H 25.9098 5.76265 5.27656
O 11.6679 17.4878 15.8308
H 11.2635 16.6277 15.944
H 11.2684 18.0321 16.5093
O 14.658 13.9037 12.7204
H 15.3259 14.5874 12.6676
H 14.5577 13.7382 13.6578
O 3.23266 17.7573 27.0717
H 3.43313 16.8416 27.2656
H 2.29939 17.7588 26.859
O 30.7691 6.47495 3.42284
H 30.4123 7.01878 2.7206
H 31.0007 7.09611 4.11329
O 28.0953 4.02346 22.5063
H 27.9408 3.47586 23.276
H 29.0484 4.06071 22.4257
O 26.6259 26.4041 26.8106
H 26.7971 26.6655 25.9058
H 27.0579 27.0744 27.3399
O 1.51099 19.2097 2.97227
H 32.9301 19.2239 2.91989
H 1.71951 19.7839 3.70919
O 30.0271 15.353 29.4788
H 29.4789 14.6574 29.1157
H 30.2581 15.0439 30.3548
O 5.66882 29.5102 18.949
H 6.00179 29.767 18.0891
H 4.83599 29.9746 19.0323
O 29.2909 17.4858 24.2958
H 29.1655 17.9827 25.1042
H 30.0204 17.9226 23.8563
O 17.5477 22.9136 10.5365
H 17.5002 22.1515 11.1138
H 16.7152 23.3671 10.6688
O 15.0389 17.8835 10.2976
H 15.84 18.2756 9.95028
H 15.2211 16.944 10.3186
O 8.68821 22.6354 10
H 7.73363 22.6242 9.93011
H 8.91983 23.5638 9.97443
O 7.76257 21.5948 3.85676
H 7.01433 21.7967 3.29499
H 7.41788 21.658 4.74751
O 25.8416 5.8135 25.6449
H 26.727 5.9477 25.9832
H 25.675 4.87958 25.7725
O 1.6714 11.7318 22.0855
H 0.762247 11.4327 22.0718
H 1.70884 12.4166 21.4177
O 8.24421 9.73412 25.6626
H 8.5017 8.84918 25.4041
H 8.54522 10.291 24.9446
O 9.41811 8.66171 21.4952
H 10.2055 8.49518 20.9769
H 9.29406 7.86232 22.0068
O 27.0348 17.6547 31.511
H 27.4199 16.8393 31.8321
H 26.1819 17.396 31.1617
O 11.6758 31.2647 24.3093
H 12.276 31.72 24.8998
H 10.8039 31.5299 24.6021
O 9.50764 30.847 6.54426
H 9.10141 31.4364 7.17973
H 9.90316 30.1564 7.07613
O 21.7491 30.9036 19.8803
H 22.4752 31.526 19.9191
H 20.9859 31.4384 19.6615
O 7.73407 5.63477 27.544
H 7.65486 4.7012 27.348
H 7.97657 5.66599 28.4694
O 0.670668 16.6362 26.5393
H 32.7987 16.1316 25.7642
H 0.748123 15.9839 27.2356
O 0.961661 10.0081 14.9441
H 1.04296 9.09889 14.6562
H 1.09734 9.97305 15.891
O 12.2994 29.9017 21.7373
H 11.8268 30.2797 22.4789
H 11.7442 30.0859 20.9797
O 31.1042 16.3948 10.686
H 30.9833 17.317 10.4599
H 30.5703 15.9196 10.0493
O 9.4849 13.9646 32.8361
H 9.44049 14.658 1.11964
H 8.6043 13.5896 32.8227
O 14.0593 13.3979 30.5437
H 13.808 13.2149 29.6384
H 14.0974 12.5373 30.9608
O 5.75506 13.247 13.8026
H 5.02572 13.8662 13.7742
H 6.32335 13.5121 13.0795
O 1.01244 19.5437 15.221
H 32.935 19.1219 15.9517
H 1.94222 19.4526 15.4295
O 19.3571 2.09758 14.9148
H 18.9425 2.49392 14.1485
H 19.909 1.40242 14.5564
O 16.4546 27.8333 5.18789
H 17.1538 27.5718 4.58864
H 16.6351 28.7533 5.38046
O 15.5988 9.80042 5.36714
H 15.3884 8.97646 5.8065
H 14.75 10.2177 5.22022
O 18.9516 13.7788 27.0709
H 19.2051 13.7704 26.1479
H 18.2122 13.1731 27.1222
O 8.0838 30.7931 4.17206
H 8.59363 30.8969 4.97551
H 7.84506 31.6858 3.92231
O 7.74005 6.33176 3.49851
H 8.03937 5.61828 4.06206
H 6.98111 5.97242 3.03904
O 7.13747 21.6384 15.8981
H 6.87175 20.7821 15.563
H 7.64241 21.4413 16.687
O 4.54277 11.2759 16.4857
H 4.09843 11.3778 17.3274
H 5.31558 11.8367 16.5529
O 21.6044 1.91407 2.59376
H 22.5375 2.00836 2.78515
H 21.4639 0.968533 2.54434
O 17.6663 28.2789 26.7182
H 17.5969 27.3838 26.3861
H 17.1764 28.8073 26.088
O 3.15205 15.126 27.9783
H 2.23288 14.8628 28.0242
H 3.53183 14.8158 28.8004
O 16.0617 24.2733 7.81893
H 15.6654 24.2605 8.69014
H 15.3186 24.2365 7.21669
O 23.4133 27.2729 23.1715
H 24.3076 27.1956 23.5039
H 23.4793 27.8956 22.4475
O 3.67666 26.931 21.6474
H 3.76394 27.8778 21.758
H 2.85726 26.8203 21.1651
O 32.1229 29.0805 19.2014
H 32.3276 30.0077 19.3225
H 32.876 28.7285 18.7268
O 11.1373 32.9692 22.0622
H 11.5055 1.41581 22.388
H 11.3548 32.3249 22.7357
O 22.8989 23.2758 12.6338
H 22.2806 23.71 12.0461
H 22.3535 22.919 13.3348
O 3.00666 20.296 0.764933
H 3.73686 20.6908 1.24156
H 2.45574 19.9106 1.44624
O 14.434 26.2747 4.08892
H 15.0475 26.8194 4.58191
H 14.4345 26.6494 3.20813
O 15.7407 16.9817 13.3831
H 15.2308 16.5147 14.045
H 15.087 17.4433 12.858
O 30.0052 32.251 12.9832
H 30.9393 32.3882 13.1408
H 29.7227 31.68 13.6977
O 25.2948 0.645157 13.9414
H 25.983 0.980459 14.516
H 25.1291 32.132 14.2581
O 25.7482 7.14542 3.8337
H 26.0629 7.92235 3.37157
H 24.7944 7.20327 3.77847
O 6.78751 8.19039 4.96598
H 7.58754 8.71419 4.92339
H 7.02333 7.35829 4.55582
O 17.8725 28.9022 9.56324
H 17.0104 29.2884 9.71758
H 17.7105 28.1954 8.9384
O 3.20214 13.4852 0.863506
H 3.47358 13.0131 1.6507
H 3.8972 14.1268 0.716776
O 20.3129 20.485 5.48894
H 20.7841 20.0963 4.75195
H 20.9289 21.1158 5.86164
O 14.675 12.3009 8.62973
H 14.1319 12.7611 7.98987
H 15.0389 12.9951 9.17918
O 8.8107 4.57505 9.32994
H 9.59449 4.37152 8.81957
H 8.29599 3.76823 9.31133
O 7.88525 10.2697 13.2387
H 8.61407 9.65849 13.1318
H 7.95308 10.8579 12.4866
O 4.87738 11.5679 27.9154
H 4.16639 11.8776 27.3543
H 4.509 11.581 28.7988
O 15.8576 16.1198 7.12146
H 15.9624 15.5955 7.91541
H 15.8313 15.478 6.41178
O 8.35233 5.39097 30.3098
H 7.50418 4.95087 30.366
H 8.99186 4.70491 30.501
O 25.629 14.1048 11.1948
H 25.9573 14.0537 12.0924
H 24.7813 14.5423 11.2739
O 21.2374 24.3405 10.9023
H 20.7602 23.5127 10.9602
H 20.8914 24.8677 11.6224
O 10.7808 20.9968 30.0222
H 9.98841 20.5201 30.2694
H 10.5972 21.9062 30.2578
O 31.8657 30.1241 15.2029
H 32.1828 29.2285 15.3194
H 32.6055 30.6756 15.4576
O 1.14264 29.732 7.78259
H 1.94477 29.4927 8.24686
H 32.8287 29.6673 8.44424
O 26.046 26.7503 14.0477
H 26.3566 26.0105 13.5257
H 25.9864 26.4068 14.9391
O 21.738 7.1573 26.4083
H 21.4278 6.35137 25.9954
H 21.0712 7.36339 27.0633
O 8.59187 32.8373 20.52
H 9.46806 0.66545 20.8476
H 8.48209 1.03299 19.7592
O 10.1876 26.6128 5.19297
H 9.32474 26.7479 4.80115
H 10.2038 27.2025 5.94675
O 15.5991 28.0652 29.1052
H 15.3639 27.1695 29.3474
H 16.3283 28.2868 29.6844
O 32.7801 18.1028 6.82203
H 1.23033 17.6189 6.7837
H 32.2193 17.6726 6.17658
O 3.52774 8.70661 2.15531
H 3.57347 9.25392 1.37135
H 3.23184 9.30021 2.84547
O 25.3098 1.39315 17.5483
H 25.4535 32.8271 17.651
H 25.7279 1.78484 18.3152
O 5.31914 6.84516 30.5937
H 6.02493 6.71383 31.2268
H 4.61054 6.28131 30.9039
O 23.1849 22.5256 31.7926
H 23.3723 21.7654 31.2421
H 23.9941 22.6727 32.2823
O 13.1747 21.3395 10.7684
H 12.3338 20.8862 10.7088
H 13.176 21.7289 11.6428
O 31.7097 18.661 12.8738
H 32.1613 19.0172 13.6388
H 30.8237 19.0188 12.9299
O 27.852 2.46832 24.8114
H 26.9409 2.59304 25.0771
H 27.8287 1.71624 24.2198
O 10.6433 23.8708 13.224
H 10.8726 24.3937 12.4558
H 9.70745 23.696 13.1248
O 22.3934 2.32993 8.74886
H 22.2223 2.65689 9.63207
H 23.3155 2.53316 8.59213
O 27.7986 26.2504 2.50498
H 28.2929 26.3528 1.6917
H 26.9205 25.9955 2.22167
O 25.0335 3.33764 9.02074
H 25.8725 2.95717 8.76108
H 25.2155 4.27155 9.12523
O 9.46647 10.5357 23.3512
H 9.32715 9.82525 22.725
H 10.4132 10.6771 23.347
O 11.4151 4.19506 28.2264
H 10.8841 3.9276 28.9766
H 12.3162 4.01344 28.4934
O 6.09923 7.78806 23.9824
H 7.03388 7.59488 23.9092
H 5.85654 8.12909 23.1216
O 21.4915 29.1968 32.0808
H 22.2948 29.1663 32.6003
H 21.6745 29.8371 31.3932
O 1.83768 5.30333 16.6365
H 2.45114 6.0278 16.7591
H 0.983815 5.67055 16.8651
O 25.5678 22.6223 13.1898
H 25.469 21.6754 13.2892
H 24.7362 22.9123 12.8149
O 31.6514 4.58944 19.554
H 32.4906 4.21922 19.2802
H 31.6779 5.49606 19.2481
O 31.7411 19.2114 27.0147
H 32.2181 18.41 26.7993
H 31.6827 19.2065 27.9701
O 21.1253 9.02232 9.21393
H 20.6982 8.49193 8.54125
H 21.0031 9.92536 8.92098
O 2.45642 2.94038 7.66346
H 3.05695 2.88595 8.40685
H 3.02345 2.89932 6.89337
O 16.9394 8.30464 8.04916
H 16.6644 9.11167 8.48423
H 16.7934 7.6189 8.70082
O 31.529 5.94028 16.2493
H 31.9552 6.01489 15.3955
H 30.8781 5.2481 16.133
O 22.3001 17.2596 31.5396
H 22.7191 17.1023 30.6934
H 23.0218 17.2597 32.1684
O 13.0995 29.4123 18.2819
H 12.4571 30.1049 18.1276
H 12.9841 28.8099 17.5471
O 11.9886 25.622 11.468
H 12.5244 26.4101 11.3773
H 12.1249 25.1437 10.6501
O 8.47639 0.700344 1.02603
H 9.34472 0.9566 1.33677
H 8.63049 32.7161 32.5269
O 10.9025 6.27942 2.02682
H 10.765 6.49148 2.95006
H 10.2489 6.80092 1.56091
O 23.3047 2.54797 21.8343
H 24.2442 2.3798 21.7618
H 22.9384 2.22188 21.0123
O 19.5672 20.7984 29.7257
H 20.4329 21.0045 29.3731
H 19.0481 20.5537 28.9596
O 30.1813 7.97838 13.9745
H 29.3173 7.74435 13.6356
H 30.7873 7.40833 13.5011
O 17.6095 22.8959 14.1371
H 18.3842 22.3825 13.9081
H 17.7062 23.7098 13.6427
O 13.3324 32.5947 1.2844
H 12.4025 32.7618 1.43823
H 13.419 32.5797 32.706
O 20.8169 25.7256 23.8167
H 20.0278 25.8472 23.2888
H 21.4189 26.4027 23.5079
O 7.65304 16.9476 32.7662
H 8.22127 16.7944 1.14632
H 7.6639 17.8972 32.6463
O 2.46739 6.78107 21.9796
H 1.80104 6.72866 21.2944
H 3.24652 7.11088 21.5319
O 16.1749 24.8003 27.4961
H 16.1299 25.282 26.6702
H 17.0804 24.9076 27.7875
O 18.3456 1.17071 1.02454
H 18.2385 32.7623 1.56439
H 17.4538 1.41634 0.778369
O 21.0698 11.7721 8.85537
H 20.5123 11.9032 9.62234
H 20.4945 11.9402 8.109
O 0.65719 19.3952 19.7837
H 1.54619 19.2065 19.4831
H 0.771844 20.0377 20.4838
O 22.8639 1.25094 5.73667
H 22.3744 32.8558 6.0264
H 22.3477 1.9946 6.0476
O 5.2637 18.6593 20.7728
H 4.59165 18.5723 20.0968
H 5.99993 19.078 20.3268
O 26.8082 27.3515 8.51251
H 26.9357 27.9953 9.20936
H 26.2116 26.7048 8.88945
O 4.25605 32.8355 16.6425
H 3.3808 32.6081 16.3288
H 4.40763 1.3456 16.3103
O 29.5888 1.49265 16.4554
H 29.5563 32.9249 16.2914
H 30.2277 1.82412 15.8244
O 9.79254 0.672433 14.1239
H 9.96974 32.4568 14.8562
H 8.95223 1.07688 14.3396
O 7.31757 31.0497 24.8325
H 7.05324 31.8483 24.3757
H 8.07876 31.3106 25.3509
O 5.72318 14.4801 25.7052
H 5.15727 13.8148 25.3137
H 5.59174 14.3823 26.6483
O 14.3852 9.53566 20.2459
H 14.3308 10.4439 20.5431
H 14.8838 9.08882 20.93
O 20.1407 24.9202 4.16528
H 20.9559 25.3612 4.40467
H 20.3942 24.3037 3.47838
O 2.78188 25.9399 7.71298
H 3.69121 25.9058 8.00994
H 2.31042 25.3665 8.31721
O 22.4491 10.7395 29.9709
H 21.5182 10.5363 29.8791
H 22.7086 10.3123 30.7872
O 21.5225 20.4984 21.6435
H 22.2504 20.7214 21.0634
H 21.6734 19.5824 21.8768
O 29.0468 13.7993 16.0548
H 29.4636 14.4698 16.5962
H 28.6892 13.1718 16.683
O 12.7568 12.4055 24.4443
H 13.3303 12.0823 25.1391
H 12.7169 11.6875 23.8126
O 24.7895 25.467 9.20418
H 24.6193 25.4632 10.1461
H 25.1909 24.6159 9.02936
O 14.3238 23.805 30.5057
H 14.9447 23.0869 30.6284
H 14.8394 24.5969 30.6583
O 20.27 8.98419 14.7228
H 20.8117 9.7565 14.5608
H 20.0419 8.66375 13.8501
O 14.9216 27.3539 1.54494
H 14.1263 27.7561 1.19573
H 15.6206 27.9666 1.31636
O 2.5882 32.2598 1.1381
H 1.71124 32.1451 1.5042
H 3.11529 31.5819 1.56097
O 4.93294 15.462 3.52824
H 5.21911 15.482 2.61504
H 5.50471 16.0879 3.97272
O 8.31412 3.65979 4.56434
H 7.67157 3.7131 5.27181
H 9.16044 3.75606 5.00104
O 7.11268 30.3181 8.37244
H 7.25831 29.6266 7.72686
H 7.78263 30.1686 9.03956
O 14.4908 3.48994 5.99959
H 13.8727 3.4111 5.27296
H 14.1025 4.14951 6.57443
O 3.45607 21.7276 14.5443
H 3.67814 21.7033 13.6135
H 3.65043 20.8452 14.8604
O 26.7237 21.4823 2.87644
H 26.8081 20.7554 3.49338
H 26.6575 22.2604 3.43
O 14.551 8.52724 24.3017
H 14.692 7.90278 25.0133
H 14.7163 9.3831 24.6972
O 11.0223 3.64167 8.15471
H 10.9648 2.72281 8.4167
H 11.9233 3.89314 8.35759
O 29.2067 20.2343 12.7207
H 28.2611 20.1658 12.8524
H 29.3688 19.7702 11.8994
O 29.8782 31.0899 31.7092
H 29.6874 31.1908 30.7766
H 30.8284 31.1872 31.7716
O 9.50741 3.76247 1.83217
H 9.81794 4.66785 1.82308
H 8.91169 3.72058 2.58023
O 13.1498 32.1037 30.8662
H 13.488 31.2379 30.6377
H 13.7058 32.7141 30.382
O 17.9456 7.30403 19.0223
H 18.6109 7.03115 19.6541
H 18.407 7.32977 18.184
O 10.4312 28.4568 7.44061
H 11.343 28.3235 7.69974
H 9.92803 28.2859 8.23671
O 20.0092 23.5634 1.68337
H 20.1644 22.8635 1.04913
H 20.1974 24.3692 1.20233
O 22.7311 1.40902 27.9109
H 22.8138 0.79492 28.6404
H 23.5954 1.81413 27.8391
O 16.6748 4.47985 32.6269
H 16.5669 3.77113 0.88647
H 16.2478 4.15829 31.8329
O 15.2104 21.1302 31.3857
H 15.4641 21.0014 30.4717
H 14.3268 20.7665 31.443
O 29.1437 19.0178 26.5706
H 30.0997 18.9799 26.599
H 28.8601 18.4819 27.3113
O 19.0778 9.56133 26.7991
H 18.5855 10.363 26.9757
H 19.7865 9.83794 26.2182
O 26.6733 19.0357 4.04979
H 25.8323 18.6406 3.82012
H 26.8681 18.695 4.92279
O 5.27873 3.14328 25.7838
H 5.77694 3.0789 26.5986
H 4.99444 2.24696 25.6049
O 14.2496 6.312 30.02
H 14.9604 6.78059 30.4574
H 14.5299 5.39678 30.0197
O 9.87106 22.6354 23.4114
H 10.6741 22.1164 23.4572
H 9.66191 22.6719 22.478
O 7.34824 9.07195 29.4538
H 7.55988 9.90374 29.03
H 8.18443 8.60885 29.5045
O 22.5762 18.4187 18.5218
H 21.816 18.2698 19.0841
H 23.3188 18.0943 19.0312
O 16.5951 2.73503 3.14716
H 16.0615 3.50759 3.3332
H 16.0892 2.00319 3.50027
O 11.9204 6.71072 14.9097
H 11.3693 7.07348 14.2161
H 11.674 5.78681 14.9534
O 13.0105 10.8492 5.67205
H 12.8271 11.0441 4.75302
H 13.199 11.7013 6.06515
O 10.015 23.6974 30.7762
H 10.3401 24.5106 31.1625
H 9.25599 23.4644 31.3108
O 32.277 26.5718 2.93635
H 31.7032 26.9935 3.57596
H 31.8031 26.6393 2.10747
O 1.57605 25.3317 15.5097
H 1.1821 25.3211 16.382
H 2.49158 25.0943 15.657
O 9.95455 8.84805 10.3393
H 10.0624 8.60542 11.259
H 10.7159 8.46896 9.90024
O 2.31515 27.8846 3.13336
H 1.38168 27.7046 3.02164
H 2.65452 27.1161 3.59204
O 9.32746 31.5746 11.7667
H 9.45548 32.1 12.5566
H 9.50426 32.1786 11.0455
O 5.66753 23.2183 9.79172
H 4.81765 23.0025 9.40782
H 5.65896 24.172 9.87304
O 22.0495 31.4356 15.9897
H 21.539 30.6343 15.8738
H 22.9557 31.1667 15.8394
O 22.3401 23.4111 17.4963
H 22.313 24.1196 18.1393
H 22.6818 22.6599 17.9813
O 12.7696 30.4234 27.3999
H 11.9944 29.9072 27.1792
H 12.9528 30.2028 28.3132
O 13.2986 26.9905 27.5642
H 13.4575 26.4112 26.819
H 14.1408 27.4182 27.7195
O 2.43195 31.2541 28.812
H 1.67137 31.6009 29.2784
H 2.9497 30.8175 29.4884
O 19.7687 5.26163 8.06522
H 20.1773 4.55437 7.56614
H 20.4358 5.52415 8.69955
O 19.3569 12.539 7.09956
H 19.4585 13.468 7.30679
H 18.4153 12.4232 6.97197
O 4.18652 13.4377 5.33593
H 4.17108 13.9961 4.55866
H 3.26536 13.3315 5.57347