LAMMPS (16 Mar 2018)
Reading data file ...
  orthogonal box = (0 0 0) to (25.8482 25.8482 25.8482)
  2 by 2 by 3 MPI processor grid
  reading atoms ...
  1572 atoms
  scanning bonds ...
  2 = max bonds/atom
  scanning angles ...
  1 = max angles/atom
  reading bonds ...
  1000 bonds
  reading angles ...
  500 angles
Finding 1-2 1-3 1-4 neighbors ...
  special bond factors lj:   0          0          0         
  special bond factors coul: 0          0          0         
  2 = max # of 1-2 neighbors
  1 = max # of 1-3 neighbors
  1 = max # of 1-4 neighbors
  2 = max # of special neighbors
Setting atom values ...
  500 settings made for charge
Setting atom values ...
  1000 settings made for charge
Setting atom values ...
  36 settings made for charge
Setting atom values ...
  36 settings made for charge
500 atoms in group wat
36 atoms in group K
36 atoms in group Cl
Finding SHAKE clusters ...
  0 = # of size 2 clusters
  0 = # of size 3 clusters
  0 = # of size 4 clusters
  500 = # of frozen angles
PPPM initialization ...
  extracting TIP4P info from pair style
  using 12-bit tables for long-range coulomb (../kspace.cpp:321)
  G vector (1/distance) = 0.309797
  grid = 24 24 24
  stencil order = 5
  estimated absolute RMS force accuracy = 0.00375155
  estimated relative force accuracy = 1.12977e-05
  using double precision FFTs
  3d grid and FFT values/proc = 5415 1152
Neighbor list info ...
  update every 1 steps, delay 0 steps, check yes
  max neighbors/atom: 2000, page size: 100000
  master list distance cutoff = 12.3092
  ghost atom cutoff = 12.3092
  binsize = 6.1546, bins = 5 5 5
  1 neighbor lists, perpetual/occasional/extra = 1 0 0
  (1) pair lj/cut/tip4p/long, perpetual
      attributes: half, newton on
      pair build: half/bin/newton
      stencil: half/bin/3d/newton
      bin: standard
Setting up Verlet run ...
  Unit style    : real
  Current step  : 0
  Time step     : 0.001
Per MPI rank memory allocation (min/avg/max) = 8.286 | 8.289 | 8.293 Mbytes
Step Density Temp Press TotEng 
       0    1.1241608    437.34234    2609236.2    2311.9202 
   10000     1.021881     1126.377    14440.671    358.20777 
Loop time of 39.7621 on 12 procs for 10000 steps with 1572 atoms

Performance: 0.022 ns/day, 1104.501 hours/ns, 251.496 timesteps/s
94.2% CPU use with 12 MPI tasks x no OpenMP threads

MPI task timing breakdown:
Section |  min time  |  avg time  |  max time  |%varavg| %total
---------------------------------------------------------------
Pair    | 21.591     | 23.404     | 26.291     |  29.9 | 58.86
Bond    | 0.005621   | 0.0064119  | 0.0070318  |   0.4 |  0.02
Kspace  | 7.1945     | 10.109     | 11.947     |  45.6 | 25.42
Neigh   | 0.0017754  | 0.0017859  | 0.0017963  |   0.0 |  0.00
Comm    | 1.2851     | 1.3081     | 1.3435     |   1.7 |  3.29
Output  | 5.725e-05  | 7.8785e-05 | 0.0002995  |   0.0 |  0.00
Modify  | 4.5306     | 4.725      | 4.7643     |   2.8 | 11.88
Other   |            | 0.2071     |            |       |  0.52

Nlocal:    131 ave 140 max 124 min
Histogram: 1 4 0 1 2 0 0 2 1 1
Nghost:    4121.5 ave 4178 max 4032 min
Histogram: 2 2 0 0 0 0 0 2 4 2
Neighs:    44087.2 ave 48285 max 40814 min
Histogram: 2 1 1 3 1 1 0 1 0 2

Total # of neighbors = 529047
Ave neighs/atom = 336.544
Ave special neighs/atom = 1.9084
Neighbor list builds = 1
Dangerous builds = 0
PPPM initialization ...
  extracting TIP4P info from pair style
  using 12-bit tables for long-range coulomb (../kspace.cpp:321)
  G vector (1/distance) = 0.310446
  grid = 25 25 25
  stencil order = 5
  estimated absolute RMS force accuracy = 0.00343529
  estimated relative force accuracy = 1.03453e-05
  using double precision FFTs
  3d grid and FFT values/proc = 6400 1875
Setting up Verlet run ...
  Unit style    : real
  Current step  : 10000
  Time step     : 0.01
Per MPI rank memory allocation (min/avg/max) = 8.324 | 8.349 | 8.395 Mbytes
Step Density Temp Press TotEng 
   10000     1.021881     1126.377    1436257.5    358.21823 
   20000     1.157833    295.28995   -886.72748   -7241.6354 
Loop time of 41.4872 on 12 procs for 10000 steps with 1572 atoms

Performance: 0.208 ns/day, 115.242 hours/ns, 241.038 timesteps/s
91.2% CPU use with 12 MPI tasks x no OpenMP threads

MPI task timing breakdown:
Section |  min time  |  avg time  |  max time  |%varavg| %total
---------------------------------------------------------------
Pair    | 20.74      | 22.761     | 25.127     |  26.3 | 54.86
Bond    | 0.005767   | 0.00654    | 0.0072415  |   0.4 |  0.02
Kspace  | 8.1738     | 10.545     | 12.555     |  38.6 | 25.42
Neigh   | 0.015703   | 0.015779   | 0.015863   |   0.0 |  0.04
Comm    | 1.2563     | 1.2803     | 1.2949     |   1.1 |  3.09
Output  | 6.0245e-05 | 7.5785e-05 | 0.00023748 |   0.0 |  0.00
Modify  | 4.7121     | 5.1388     | 6.7391     |  21.6 | 12.39
Other   |            | 1.74       |            |       |  4.19

Nlocal:    131 ave 136 max 126 min
Histogram: 2 1 0 0 1 3 1 1 1 2
Nghost:    4259.67 ave 4324 max 4189 min
Histogram: 2 1 1 0 1 2 1 0 2 2
Neighs:    47147.2 ave 50269 max 43282 min
Histogram: 1 2 0 1 1 0 2 1 3 1

Total # of neighbors = 565766
Ave neighs/atom = 359.902
Ave special neighs/atom = 1.9084
Neighbor list builds = 9
Dangerous builds = 0
PPPM initialization ...
  extracting TIP4P info from pair style
  using 12-bit tables for long-range coulomb (../kspace.cpp:321)
  G vector (1/distance) = 0.310507
  grid = 24 24 24
  stencil order = 5
  estimated absolute RMS force accuracy = 0.00364316
  estimated relative force accuracy = 1.09713e-05
  using double precision FFTs
  3d grid and FFT values/proc = 5415 1152
Setting up Verlet run ...
  Unit style    : real
  Current step  : 20000
  Time step     : 0.1
Per MPI rank memory allocation (min/avg/max) = 8.286 | 8.29 | 8.293 Mbytes
Step Density Temp Press TotEng 
   20000     1.157833    295.28995   -22173.004   -7241.6518 
   30000    1.1892545     304.5802    879.14841   -8290.5863 
Loop time of 43.0284 on 12 procs for 10000 steps with 1572 atoms

Performance: 2.008 ns/day, 11.952 hours/ns, 232.405 timesteps/s
94.5% CPU use with 12 MPI tasks x no OpenMP threads

MPI task timing breakdown:
Section |  min time  |  avg time  |  max time  |%varavg| %total
---------------------------------------------------------------
Pair    | 23.312     | 26.469     | 28.617     |  31.6 | 61.52
Bond    | 0.0059009  | 0.0065108  | 0.0077067  |   0.5 |  0.02
Kspace  | 7.9735     | 10.13      | 13.277     |  51.1 | 23.54
Neigh   | 0.090619   | 0.090924   | 0.091167   |   0.1 |  0.21
Comm    | 1.3184     | 1.3321     | 1.3505     |   0.9 |  3.10
Output  | 6.2332e-05 | 7.8366e-05 | 0.00024314 |   0.0 |  0.00
Modify  | 4.5903     | 4.789      | 4.842      |   2.9 | 11.13
Other   |            | 0.2106     |            |       |  0.49

Nlocal:    131 ave 143 max 121 min
Histogram: 3 1 0 2 0 1 1 2 1 1
Nghost:    4304.17 ave 4321 max 4275 min
Histogram: 1 1 0 0 0 3 0 3 2 2
Neighs:    49141.2 ave 55855 max 42215 min
Histogram: 1 1 3 0 1 2 0 0 2 2

Total # of neighbors = 589694
Ave neighs/atom = 375.123
Ave special neighs/atom = 1.9084
Neighbor list builds = 46
Dangerous builds = 0
PPPM initialization ...
  extracting TIP4P info from pair style
  using 12-bit tables for long-range coulomb (../kspace.cpp:321)
  G vector (1/distance) = 0.311149
  grid = 24 24 24
  stencil order = 5
  estimated absolute RMS force accuracy = 0.00354761
  estimated relative force accuracy = 1.06835e-05
  using double precision FFTs
  3d grid and FFT values/proc = 5415 1152
Setting up Verlet run ...
  Unit style    : real
  Current step  : 30000
  Time step     : 0.2
Per MPI rank memory allocation (min/avg/max) = 8.287 | 8.312 | 8.535 Mbytes
Step Density Temp Press TotEng 
   30000    1.1892545     304.5802    4419.7139   -8290.5862 
   40000    1.1563722    313.09261    400.78335   -8336.6433 
Loop time of 43.324 on 12 procs for 10000 steps with 1572 atoms

Performance: 3.989 ns/day, 6.017 hours/ns, 230.819 timesteps/s
93.7% CPU use with 12 MPI tasks x no OpenMP threads

MPI task timing breakdown:
Section |  min time  |  avg time  |  max time  |%varavg| %total
---------------------------------------------------------------
Pair    | 23         | 26.23      | 28.641     |  36.5 | 60.54
Bond    | 0.0059529  | 0.0065921  | 0.007614   |   0.5 |  0.02
Kspace  | 8.1778     | 10.584     | 13.803     |  57.4 | 24.43
Neigh   | 0.17068    | 0.17113    | 0.1714     |   0.1 |  0.40
Comm    | 1.326      | 1.3456     | 1.3709     |   1.2 |  3.11
Output  | 5.8576e-05 | 7.5284e-05 | 0.00024386 |   0.0 |  0.00
Modify  | 4.5789     | 4.7782     | 4.8259     |   2.8 | 11.03
Other   |            | 0.2084     |            |       |  0.48

Nlocal:    131 ave 141 max 123 min
Histogram: 1 2 2 1 1 0 2 1 1 1
Nghost:    4211.42 ave 4274 max 4144 min
Histogram: 1 1 2 0 2 1 1 1 2 1
Neighs:    47768.5 ave 54593 max 41818 min
Histogram: 2 1 2 1 0 1 1 2 1 1

Total # of neighbors = 573222
Ave neighs/atom = 364.645
Ave special neighs/atom = 1.9084
Neighbor list builds = 86
Dangerous builds = 0
PPPM initialization ...
  extracting TIP4P info from pair style
  using 12-bit tables for long-range coulomb (../kspace.cpp:321)
  G vector (1/distance) = 0.310477
  grid = 24 24 24
  stencil order = 5
  estimated absolute RMS force accuracy = 0.00364773
  estimated relative force accuracy = 1.0985e-05
  using double precision FFTs
  3d grid and FFT values/proc = 5415 1152
Setting up Verlet run ...
  Unit style    : real
  Current step  : 40000
  Time step     : 0.5
Per MPI rank memory allocation (min/avg/max) = 8.288 | 8.394 | 8.542 Mbytes
Step Density Temp Press TotEng 
   40000    1.1563722    313.09261    257.53607   -8336.6442 
   50000    1.1505702    302.45597     580.7887   -8410.2019 
Loop time of 44.0326 on 12 procs for 10000 steps with 1572 atoms

Performance: 9.811 ns/day, 2.446 hours/ns, 227.104 timesteps/s
93.5% CPU use with 12 MPI tasks x no OpenMP threads

MPI task timing breakdown:
Section |  min time  |  avg time  |  max time  |%varavg| %total
---------------------------------------------------------------
Pair    | 23.704     | 26.385     | 29.291     |  35.6 | 59.92
Bond    | 0.0060211  | 0.0065697  | 0.007221   |   0.3 |  0.01
Kspace  | 7.9127     | 10.815     | 13.485     |  55.5 | 24.56
Neigh   | 0.43829    | 0.43929    | 0.44027    |   0.1 |  1.00
Comm    | 1.3619     | 1.3793     | 1.3996     |   1.0 |  3.13
Output  | 6.1676e-05 | 7.6937e-05 | 0.00023939 |   0.0 |  0.00
Modify  | 4.5978     | 4.7974     | 4.8439     |   2.8 | 10.90
Other   |            | 0.2104     |            |       |  0.48

Nlocal:    131 ave 140 max 123 min
Histogram: 1 3 0 0 2 2 1 0 2 1
Nghost:    4163.92 ave 4196 max 4147 min
Histogram: 2 1 4 2 1 0 0 0 1 1
Neighs:    47138.5 ave 53786 max 41850 min
Histogram: 1 2 2 2 1 1 0 0 1 2

Total # of neighbors = 565662
Ave neighs/atom = 359.836
Ave special neighs/atom = 1.9084
Neighbor list builds = 219
Dangerous builds = 0
PPPM initialization ...
  extracting TIP4P info from pair style
  using 12-bit tables for long-range coulomb (../kspace.cpp:321)
  G vector (1/distance) = 0.310356
  grid = 24 24 24
  stencil order = 5
  estimated absolute RMS force accuracy = 0.003666
  estimated relative force accuracy = 1.104e-05
  using double precision FFTs
  3d grid and FFT values/proc = 5415 1152
Setting up Verlet run ...
  Unit style    : real
  Current step  : 0
  Time step     : 1
Per MPI rank memory allocation (min/avg/max) = 8.291 | 8.456 | 8.66 Mbytes
Step Density Temp Press TotEng 
       0    1.1505702    302.45597   -339.43882   -8410.2023 
  100000    1.1228514    292.72818   -905.33785   -8419.2562 
  200000    1.1599967    297.58694    186.93883   -8406.0035 
  300000     1.156849    293.28382    190.69825   -8445.8183 
  400000    1.1573629    295.69027    8.0202507   -8399.5121 
  500000    1.1578967    294.32411     81.83038   -8438.1134 
  600000    1.1540199    299.70391    1318.1261   -8452.1648 
  700000    1.1335983    301.42996   -149.67156   -8366.3307 
  800000    1.1542587    296.78302    386.03074   -8370.5742 
  900000    1.1658303    291.01336    32.301429   -8472.2427 
 1000000    1.1360537    304.42361   -248.38528   -8322.4325 
 1100000    1.1516686     303.7477   -592.77506   -8365.5569 
 1200000    1.1446154    295.27603   -358.03645   -8432.1441 
 1300000    1.1598533     304.5363   -303.61646   -8368.7521 
 1400000    1.1493195    297.42095   -749.56204   -8377.8741 
 1500000    1.1595995    300.59746   -889.99967    -8401.745 
 1600000    1.1533901    302.29285   -908.46579    -8370.775 
 1700000     1.161559    293.03694   -475.26757   -8442.9204 
 1800000    1.1548421    283.81967    157.58269   -8410.8803 
 1900000    1.1607367    299.61834   -17.390564   -8463.7466 
 2000000    1.1533021    306.12503    -332.8094   -8418.9876 
 2100000    1.1451177    310.90189   -123.31559   -8288.0511 
 2200000    1.1472147    301.96425    69.688632   -8336.1874 
 2300000    1.1690038    305.76677    660.27341   -8377.1382 
 2400000    1.1667804     295.5303   -725.01632   -8399.7967 
 2500000    1.1287167    302.27489    -75.21876     -8369.06 
 2600000    1.1524261    289.15763    83.857431   -8409.0375 
 2700000    1.1608623    310.37545    248.94074   -8396.2478 
 2800000    1.1623327    295.12718    1290.5612   -8400.3781 
 2900000    1.1563647    290.69993    329.33612   -8347.1429 
 3000000    1.1597431    282.28568    259.11273   -8464.8676 
 3100000    1.1514469    293.80019    629.07343     -8388.57 
 3200000    1.1323213    290.17337   -1364.2688   -8413.4435 
 3300000    1.1413834    302.81375   -240.94577   -8364.9063 
 3400000    1.1394789    299.95704   -541.23963   -8395.4256 
 3500000    1.1206639    293.26947   -1670.6044   -8406.7413 
 3600000    1.1485596    298.55654    16.945833    -8412.703 
 3700000    1.1534843    280.92879    1027.6402   -8465.2149 
 3800000    1.1517881    302.66385    288.59547   -8463.1769 
 3900000    1.1573086    295.36711   -463.35665   -8452.8796 
 4000000    1.1710227    280.26248    942.45966   -8419.6169 
 4100000     1.156396    302.74902    142.44891   -8412.5813 
 4200000     1.149606    295.89541    -144.8039   -8337.2263 
 4300000    1.1425165    298.43693    448.65619   -8346.3662 
 4400000    1.1469965    292.59762   -297.79159   -8397.3836 
 4500000    1.1577346    299.10833    -186.0731   -8387.8751 
 4600000    1.1325625    291.70968   -2045.1569   -8425.7895 
 4700000    1.1448654    303.25622   -825.63179   -8361.9895 
 4800000    1.1409032    290.59827    -235.0804   -8421.1726 
 4900000    1.1399316     294.3043    413.77384   -8433.1843 
 5000000    1.1628641    307.10304    450.83262    -8392.128 
Loop time of 22352.6 on 12 procs for 5000000 steps with 1572 atoms

Performance: 19.327 ns/day, 1.242 hours/ns, 223.687 timesteps/s
93.6% CPU use with 12 MPI tasks x no OpenMP threads

MPI task timing breakdown:
Section |  min time  |  avg time  |  max time  |%varavg| %total
---------------------------------------------------------------
Pair    | 12370      | 13320      | 14125      | 562.9 | 59.59
Bond    | 2.9921     | 3.2684     | 3.6342     |   8.4 |  0.01
Kspace  | 4587.3     | 5396       | 6349.2     | 885.9 | 24.14
Neigh   | 411.13     | 411.77     | 412.17     |   1.8 |  1.84
Comm    | 699.44     | 708.84     | 721.64     |  24.7 |  3.17
Output  | 0.0030595  | 0.003842   | 0.012148   |   4.0 |  0.00
Modify  | 2308.6     | 2408.8     | 2430.7     |  63.4 | 10.78
Other   |            | 104.2      |            |       |  0.47

Nlocal:    131 ave 140 max 118 min
Histogram: 1 1 0 2 0 2 1 1 1 3
Nghost:    4229.83 ave 4293 max 4181 min
Histogram: 1 1 3 0 2 3 0 1 0 1
Neighs:    48093.1 ave 51862 max 42535 min
Histogram: 1 1 0 2 0 1 2 1 2 2

Total # of neighbors = 577117
Ave neighs/atom = 367.123
Ave special neighs/atom = 1.9084
Neighbor list builds = 203401
Dangerous builds = 0
PPPM initialization ...
  extracting TIP4P info from pair style
  using 12-bit tables for long-range coulomb (../kspace.cpp:321)
  G vector (1/distance) = 0.310611
  grid = 24 24 24
  stencil order = 5
  estimated absolute RMS force accuracy = 0.00362751
  estimated relative force accuracy = 1.09241e-05
  using double precision FFTs
  3d grid and FFT values/proc = 5415 1152
Setting up Verlet run ...
  Unit style    : real
  Current step  : 0
  Time step     : 1
Per MPI rank memory allocation (min/avg/max) = 8.659 | 8.663 | 8.666 Mbytes
Step Density Temp Press TotEng 
       0    1.1628641    307.10304    446.11336   -8392.1281 
  100000    1.1254373    303.89277   -940.20533   -8386.3272 
  200000     1.160058    296.41984   -234.62704   -8422.5158 
  300000    1.1538891    297.88543   -436.92747   -8430.1618 
  400000    1.1477983    306.68387    851.47379   -8367.2828 
  500000    1.1396196     303.5142   -397.74204   -8345.9505 
  600000    1.1493121    302.53148    158.23084   -8389.8608 
  700000     1.157196    296.81631   -475.07769   -8404.9089 
  800000    1.1498764    301.72329    843.66913   -8371.3451 
  900000    1.1369631    311.97211   -539.62586   -8361.7818 
 1000000    1.1514725    291.43538   -810.45484   -8444.3027 
 1100000     1.154371    294.84457   -386.26912   -8424.6639 
 1200000    1.1602148    299.66209    568.80146   -8403.8312 
 1300000    1.1439545    297.44935    301.13013   -8384.4483 
 1400000    1.1447703    288.24734   -687.47923    -8365.485 
 1500000    1.1567984    295.78916   -638.26922    -8502.266 
 1600000    1.1660019    298.66625   -73.324148   -8466.1138 
 1700000    1.1582622    294.38434    15.412932   -8382.9336 
 1800000    1.1547403    306.05694    169.33432     -8367.16 
 1900000    1.1444384    293.32356   -441.48783   -8435.4433 
 2000000    1.1622326    290.88601    814.97503   -8483.5247 
 2100000    1.1539325    299.42447    313.53762   -8397.5184 
 2200000    1.1573782    297.65987     487.8344   -8388.2216 
 2300000    1.1485314    307.70163   -799.88632   -8400.4859 
 2400000    1.1593088    307.39401   -457.01297   -8382.4255 
 2500000    1.1428692    303.94525    617.80297   -8423.7935 
 2600000    1.1510817    298.27655   -740.64181   -8412.3325 
 2700000    1.1375033    294.18793   -974.12691   -8455.2388 
 2800000    1.1559901    302.09263    648.46089    -8383.358 
 2900000    1.1717156    302.76008    814.28799   -8410.1696 
 3000000    1.1273173    312.26623   -852.19513   -8399.1935 
 3100000    1.1472365    297.59404   -598.87194   -8404.1628 
 3200000    1.1365995    294.30845   -675.50248   -8392.1144 
 3300000     1.156973    299.04879   -359.03448   -8408.8669 
 3400000    1.1689625    300.88873    335.70153   -8376.8329 
 3500000    1.1519354    303.89082    210.42758   -8377.8801 
 3600000    1.1577232    298.72901     375.1846   -8395.8195 
 3700000    1.1614618    303.06265    144.36518    -8390.251 
 3800000    1.1621569    300.79734    234.82522    -8421.606 
 3900000    1.1554072    291.05776    617.05006   -8438.3551 
 4000000    1.1544454    289.57965   -638.33536   -8453.0088 
 4100000    1.1617105    287.44796    703.10483   -8477.3216 
 4200000    1.1418647    280.76122   -111.59982   -8475.3776 
 4300000    1.1598825    301.54601   -336.36878   -8372.7204 
 4400000    1.1356275    305.92928    112.95681    -8403.009 
 4500000    1.1776137    308.91748    593.96733   -8384.6986 
 4600000    1.1563328    298.22224   -89.571735   -8420.6765 
 4700000    1.1546993    293.68534    -26.91186    -8394.316 
 4800000    1.1521677    300.71605    1035.5718     -8358.24 
 4900000    1.1420611    294.41284    119.49845   -8346.4812 
 5000000    1.1594586    294.77827    553.15235    -8423.214 
Loop time of 22577 on 12 procs for 5000000 steps with 1572 atoms

Performance: 19.135 ns/day, 1.254 hours/ns, 221.464 timesteps/s
93.6% CPU use with 12 MPI tasks x no OpenMP threads

MPI task timing breakdown:
Section |  min time  |  avg time  |  max time  |%varavg| %total
---------------------------------------------------------------
Pair    | 12553      | 13397      | 14178      | 494.7 | 59.34
Bond    | 3.1769     | 3.3658     | 3.6337     |   6.3 |  0.01
Kspace  | 4576.9     | 5366.2     | 6219.1     | 783.6 | 23.77
Neigh   | 410.41     | 410.96     | 411.31     |   1.4 |  1.82
Comm    | 700.72     | 710.49     | 724.1      |  26.0 |  3.15
Output  | 0.21851    | 0.21904    | 0.2242     |   0.3 |  0.00
Modify  | 2483.3     | 2583.8     | 2605.8     |  61.4 | 11.44
Other   |            | 104.8      |            |       |  0.46

Nlocal:    131 ave 146 max 123 min
Histogram: 2 2 1 3 1 1 1 0 0 1
Nghost:    4242.42 ave 4301 max 4185 min
Histogram: 2 0 1 3 0 1 1 1 1 2
Neighs:    48006.3 ave 53686 max 43334 min
Histogram: 2 2 2 1 0 0 0 3 0 2

Total # of neighbors = 576076
Ave neighs/atom = 366.461
Ave special neighs/atom = 1.9084
Neighbor list builds = 203559
Dangerous builds = 0
Changing box ...
  orthogonal box = (0.132505 0.132505 0.132505) to (25.7655 25.7157 25.7157)
  orthogonal box = (0.132505 0.132505 0.132505) to (25.7655 25.7655 25.7157)
  orthogonal box = (0.132505 0.132505 0.132505) to (25.7655 25.7655 25.7655)
PPPM initialization ...
  extracting TIP4P info from pair style
  using 12-bit tables for long-range coulomb (../kspace.cpp:321)
  G vector (1/distance) = 0.310401
  grid = 24 24 24
  stencil order = 5
  estimated absolute RMS force accuracy = 0.00365923
  estimated relative force accuracy = 1.10196e-05
  using double precision FFTs
  3d grid and FFT values/proc = 5415 1152
Setting up Verlet run ...
  Unit style    : real
  Current step  : 5000000
  Time step     : 0.001
Per MPI rank memory allocation (min/avg/max) = 8.659 | 8.663 | 8.666 Mbytes
Step Density Temp Press TotEng 
 5000000    1.1527146    294.77827   -40088.213   -8447.6991 
 5010000    1.1527146    301.55683   -167.95509   -8404.9197 
Loop time of 30.0513 on 12 procs for 10000 steps with 1572 atoms

Performance: 0.029 ns/day, 834.758 hours/ns, 332.765 timesteps/s
93.9% CPU use with 12 MPI tasks x no OpenMP threads

MPI task timing breakdown:
Section |  min time  |  avg time  |  max time  |%varavg| %total
---------------------------------------------------------------
Pair    | 16.313     | 18.269     | 20.104     |  29.1 | 60.79
Bond    | 0.0035687  | 0.0039838  | 0.0044688  |   0.4 |  0.01
Kspace  | 7.2297     | 9.0515     | 10.91      |  40.6 | 30.12
Neigh   | 0          | 0          | 0          |   0.0 |  0.00
Comm    | 1.3836     | 1.4856     | 1.5902     |   5.7 |  4.94
Output  | 6.2555e-05 | 7.6589e-05 | 0.00021993 |   0.0 |  0.00
Modify  | 1.042      | 1.0707     | 1.0903     |   1.4 |  3.56
Other   |            | 0.1703     |            |       |  0.57

Nlocal:    131 ave 146 max 122 min
Histogram: 1 1 3 3 1 1 1 0 0 1
Nghost:    4234.17 ave 4289 max 4176 min
Histogram: 2 0 1 2 1 1 1 1 1 2
Neighs:    47730.9 ave 53139 max 43469 min
Histogram: 3 0 3 1 0 0 1 1 1 2

Total # of neighbors = 572771
Ave neighs/atom = 364.358
Ave special neighs/atom = 1.9084
Neighbor list builds = 0
Dangerous builds = 0
PPPM initialization ...
  extracting TIP4P info from pair style
  using 12-bit tables for long-range coulomb (../kspace.cpp:321)
  G vector (1/distance) = 0.310401
  grid = 24 24 24
  stencil order = 5
  estimated absolute RMS force accuracy = 0.00365923
  estimated relative force accuracy = 1.10196e-05
  using double precision FFTs
  3d grid and FFT values/proc = 5415 1152
Setting up Verlet run ...
  Unit style    : real
  Current step  : 5010000
  Time step     : 0.01
Per MPI rank memory allocation (min/avg/max) = 8.659 | 8.663 | 8.666 Mbytes
Step Density Temp Press TotEng 
 5010000    1.1527146    301.55683   -167.97504   -8404.9197 
 5020000    1.1527146    307.83721    -795.5554   -8400.1706 
Loop time of 30.3914 on 12 procs for 10000 steps with 1572 atoms

Performance: 0.284 ns/day, 84.420 hours/ns, 329.041 timesteps/s
93.3% CPU use with 12 MPI tasks x no OpenMP threads

MPI task timing breakdown:
Section |  min time  |  avg time  |  max time  |%varavg| %total
---------------------------------------------------------------
Pair    | 16.43      | 18.272     | 20.372     |  29.8 | 60.12
Bond    | 0.0036707  | 0.0039459  | 0.0042817  |   0.3 |  0.01
Kspace  | 7.4981     | 9.546      | 11.349     |  40.2 | 31.41
Neigh   | 0.007943   | 0.0079556  | 0.0079662  |   0.0 |  0.03
Comm    | 1.2691     | 1.3227     | 1.3874     |   3.0 |  4.35
Output  | 6.2436e-05 | 7.788e-05  | 0.00023802 |   0.0 |  0.00
Modify  | 1.061      | 1.0701     | 1.0785     |   0.4 |  3.52
Other   |            | 0.1686     |            |       |  0.55

Nlocal:    131 ave 140 max 118 min
Histogram: 1 0 1 2 1 0 2 1 2 2
Nghost:    4233.17 ave 4267 max 4192 min
Histogram: 1 1 2 0 1 0 1 3 2 1
Neighs:    47723.6 ave 54728 max 41682 min
Histogram: 1 1 4 0 0 2 1 1 0 2

Total # of neighbors = 572683
Ave neighs/atom = 364.302
Ave special neighs/atom = 1.9084
Neighbor list builds = 4
Dangerous builds = 0
PPPM initialization ...
  extracting TIP4P info from pair style
  using 12-bit tables for long-range coulomb (../kspace.cpp:321)
  G vector (1/distance) = 0.310401
  grid = 24 24 24
  stencil order = 5
  estimated absolute RMS force accuracy = 0.00365923
  estimated relative force accuracy = 1.10196e-05
  using double precision FFTs
  3d grid and FFT values/proc = 5415 1152
Setting up Verlet run ...
  Unit style    : real
  Current step  : 5020000
  Time step     : 0.1
Per MPI rank memory allocation (min/avg/max) = 8.659 | 8.663 | 8.666 Mbytes
Step Density Temp Press TotEng 
 5020000    1.1527146    307.83721   -795.32988   -8400.1706 
 5030000    1.1527146    294.77821   -706.82985   -8437.9899 
Loop time of 30.1899 on 12 procs for 10000 steps with 1572 atoms

Performance: 2.862 ns/day, 8.386 hours/ns, 331.236 timesteps/s
93.8% CPU use with 12 MPI tasks x no OpenMP threads

MPI task timing breakdown:
Section |  min time  |  avg time  |  max time  |%varavg| %total
---------------------------------------------------------------
Pair    | 16.926     | 18.421     | 20.071     |  22.0 | 61.02
Bond    | 0.0035508  | 0.004025   | 0.0044175  |   0.3 |  0.01
Kspace  | 7.4773     | 9.0875     | 10.523     |  30.6 | 30.10
Neigh   | 0.083191   | 0.08331    | 0.083426   |   0.0 |  0.28
Comm    | 1.3119     | 1.3522     | 1.4025     |   2.3 |  4.48
Output  | 6.0871e-05 | 7.6452e-05 | 0.00023295 |   0.0 |  0.00
Modify  | 1.0634     | 1.0733     | 1.083      |   0.5 |  3.56
Other   |            | 0.1688     |            |       |  0.56

Nlocal:    131 ave 140 max 123 min
Histogram: 2 1 0 2 2 2 0 1 0 2
Nghost:    4214.25 ave 4254 max 4178 min
Histogram: 2 1 1 2 1 1 0 1 1 2
Neighs:    47670.2 ave 54566 max 44314 min
Histogram: 3 2 1 3 0 1 1 0 0 1

Total # of neighbors = 572042
Ave neighs/atom = 363.894
Ave special neighs/atom = 1.9084
Neighbor list builds = 42
Dangerous builds = 0
PPPM initialization ...
  extracting TIP4P info from pair style
  using 12-bit tables for long-range coulomb (../kspace.cpp:321)
  G vector (1/distance) = 0.310401
  grid = 24 24 24
  stencil order = 5
  estimated absolute RMS force accuracy = 0.00365923
  estimated relative force accuracy = 1.10196e-05
  using double precision FFTs
  3d grid and FFT values/proc = 5415 1152
Setting up Verlet run ...
  Unit style    : real
  Current step  : 5030000
  Time step     : 0.2
Per MPI rank memory allocation (min/avg/max) = 8.659 | 8.663 | 8.666 Mbytes
Step Density Temp Press TotEng 
 5030000    1.1527146    294.77821    -706.2819   -8437.9899 
 5040000    1.1527146    291.11204    1024.9471   -8467.1225 
Loop time of 30.8285 on 12 procs for 10000 steps with 1572 atoms

Performance: 5.605 ns/day, 4.282 hours/ns, 324.375 timesteps/s
93.4% CPU use with 12 MPI tasks x no OpenMP threads

MPI task timing breakdown:
Section |  min time  |  avg time  |  max time  |%varavg| %total
---------------------------------------------------------------
Pair    | 17.16      | 18.523     | 20.813     |  22.9 | 60.08
Bond    | 0.0035884  | 0.0040685  | 0.0043712  |   0.3 |  0.01
Kspace  | 7.2891     | 9.5407     | 10.907     |  31.5 | 30.95
Neigh   | 0.15658    | 0.15672    | 0.15686    |   0.0 |  0.51
Comm    | 1.3212     | 1.3595     | 1.3902     |   1.5 |  4.41
Output  | 6.1989e-05 | 7.7978e-05 | 0.00023681 |   0.0 |  0.00
Modify  | 1.0646     | 1.0765     | 1.0902     |   0.8 |  3.49
Other   |            | 0.1683     |            |       |  0.55

Nlocal:    131 ave 148 max 121 min
Histogram: 1 2 3 2 0 2 1 0 0 1
Nghost:    4227.42 ave 4275 max 4185 min
Histogram: 1 1 1 1 3 1 2 1 0 1
Neighs:    47709.4 ave 52885 max 42935 min
Histogram: 2 1 1 1 2 0 1 1 2 1

Total # of neighbors = 572513
Ave neighs/atom = 364.194
Ave special neighs/atom = 1.9084
Neighbor list builds = 79
Dangerous builds = 0
PPPM initialization ...
  extracting TIP4P info from pair style
  using 12-bit tables for long-range coulomb (../kspace.cpp:321)
  G vector (1/distance) = 0.310401
  grid = 24 24 24
  stencil order = 5
  estimated absolute RMS force accuracy = 0.00365923
  estimated relative force accuracy = 1.10196e-05
  using double precision FFTs
  3d grid and FFT values/proc = 5415 1152
Setting up Verlet run ...
  Unit style    : real
  Current step  : 5040000
  Time step     : 0.5
Per MPI rank memory allocation (min/avg/max) = 8.659 | 8.663 | 8.666 Mbytes
Step Density Temp Press TotEng 
 5040000    1.1527146    291.11204    1023.8393   -8467.1225 
 5050000    1.1527146      281.186    331.70924    -8464.448 
Loop time of 31.5555 on 12 procs for 10000 steps with 1572 atoms

Performance: 13.690 ns/day, 1.753 hours/ns, 316.902 timesteps/s
92.9% CPU use with 12 MPI tasks x no OpenMP threads

MPI task timing breakdown:
Section |  min time  |  avg time  |  max time  |%varavg| %total
---------------------------------------------------------------
Pair    | 16.936     | 18.666     | 21.269     |  24.0 | 59.15
Bond    | 0.0035441  | 0.0040654  | 0.0044776  |   0.3 |  0.01
Kspace  | 7.2711     | 9.8268     | 11.508     |  32.4 | 31.14
Neigh   | 0.40751    | 0.40805    | 0.40856    |   0.0 |  1.29
Comm    | 1.3335     | 1.3804     | 1.4171     |   2.2 |  4.37
Output  | 6.3032e-05 | 7.8585e-05 | 0.00023931 |   0.0 |  0.00
Modify  | 1.0887     | 1.1016     | 1.1138     |   0.6 |  3.49
Other   |            | 0.1686     |            |       |  0.53

Nlocal:    131 ave 147 max 107 min
Histogram: 1 0 0 1 0 4 2 0 3 1
Nghost:    4205.42 ave 4297 max 4128 min
Histogram: 2 0 0 2 3 3 0 0 1 1
Neighs:    47705.6 ave 55036 max 37526 min
Histogram: 1 0 1 2 0 2 1 3 0 2

Total # of neighbors = 572467
Ave neighs/atom = 364.165
Ave special neighs/atom = 1.9084
Neighbor list builds = 203
Dangerous builds = 0
PPPM initialization ...
  extracting TIP4P info from pair style
  using 12-bit tables for long-range coulomb (../kspace.cpp:321)
  G vector (1/distance) = 0.310401
  grid = 24 24 24
  stencil order = 5
  estimated absolute RMS force accuracy = 0.00365923
  estimated relative force accuracy = 1.10196e-05
  using double precision FFTs
  3d grid and FFT values/proc = 5415 1152
Setting up Verlet run ...
  Unit style    : real
  Current step  : 5050000
  Time step     : 1
Per MPI rank memory allocation (min/avg/max) = 8.659 | 8.663 | 8.666 Mbytes
Step Density Temp Press TotEng 
 5050000    1.1527146      281.186    325.75892    -8464.448 
 5100000    1.1527146    289.77103    264.40263   -8407.2842 
 5200000    1.1527146    311.53342   -184.01011   -8371.5392 
 5300000    1.1527146    293.08519    68.455999   -8428.6327 
 5400000    1.1527146    304.26691    -106.7997   -8377.3437 
 5500000    1.1527146    295.30211   -770.33127   -8359.0536 
 5600000    1.1527146    293.41737   -33.517593   -8505.7533 
 5700000    1.1527146    294.26821   -188.95946   -8509.8048 
 5800000    1.1527146    301.16598    441.37892   -8375.0561 
 5900000    1.1527146    305.74525     230.2356   -8311.3053 
 6000000    1.1527146    302.46349     122.8977   -8422.5206 
 6100000    1.1527146    304.07795    710.45881   -8375.3774 
 6200000    1.1527146    288.71151    -41.93966   -8409.7506 
 6300000    1.1527146    300.37875   -218.80121   -8376.5886 
 6400000    1.1527146    292.22022    744.34195   -8394.0117 
 6500000    1.1527146     316.6268    311.17617   -8342.8802 
 6600000    1.1527146    302.13392    552.47973   -8345.6903 
 6700000    1.1527146    285.37231    682.84892   -8470.9756 
 6800000    1.1527146    295.79379    -585.7255   -8417.3388 
 6900000    1.1527146    293.88332    235.44644   -8436.9578 
 7000000    1.1527146     295.1657   -683.77975   -8425.0886 
 7100000    1.1527146    304.58133    338.98754   -8380.2792 
 7200000    1.1527146    302.29568   -817.82209   -8385.8652 
 7300000    1.1527146    296.47074    522.97389   -8319.0865 
 7400000    1.1527146    296.59881   -595.51292   -8416.5612 
 7500000    1.1527146    296.05499    -688.4662   -8475.4566 
 7550000    1.1527146    293.89615    498.79063   -8422.9944 
Loop time of 7998.03 on 12 procs for 2500000 steps with 1572 atoms

Performance: 27.007 ns/day, 0.889 hours/ns, 312.577 timesteps/s
93.2% CPU use with 12 MPI tasks x no OpenMP threads

MPI task timing breakdown:
Section |  min time  |  avg time  |  max time  |%varavg| %total
---------------------------------------------------------------
Pair    | 4385.1     | 4706.1     | 4990.9     | 315.4 | 58.84
Bond    | 0.90359    | 1.0168     | 1.1399     |   6.1 |  0.01
Kspace  | 2127.6     | 2408.8     | 2725.2     | 436.5 | 30.12
Neigh   | 203.43     | 203.72     | 203.91     |   1.1 |  2.55
Comm    | 352.53     | 358.08     | 362.28     |  16.2 |  4.48
Output  | 0.11023    | 0.11052    | 0.11339    |   0.3 |  0.00
Modify  | 275.61     | 277.85     | 280.2      |   6.9 |  3.47
Other   |            | 42.34      |            |       |  0.53

Nlocal:    131 ave 141 max 119 min
Histogram: 2 1 0 0 0 3 1 3 1 1
Nghost:    4204.08 ave 4260 max 4167 min
Histogram: 3 0 3 1 0 2 1 0 1 1
Neighs:    47690.3 ave 54421 max 41059 min
Histogram: 1 0 1 2 2 3 1 0 1 1

Total # of neighbors = 572284
Ave neighs/atom = 364.048
Ave special neighs/atom = 1.9084
Neighbor list builds = 100599
Dangerous builds = 0
PPPM initialization ...
  extracting TIP4P info from pair style
  using 12-bit tables for long-range coulomb (../kspace.cpp:321)
  G vector (1/distance) = 0.310401
  grid = 24 24 24
  stencil order = 5
  estimated absolute RMS force accuracy = 0.00365923
  estimated relative force accuracy = 1.10196e-05
  using double precision FFTs
  3d grid and FFT values/proc = 5415 1152
Setting up Verlet run ...
  Unit style    : real
  Current step  : 0
  Time step     : 1
Per MPI rank memory allocation (min/avg/max) = 14.31 | 14.31 | 14.32 Mbytes
Step Density Temp Press TotEng 
       0    1.1527146    293.89615    498.78957   -8422.9944 
  100000    1.1527146    298.33622     834.2551    -8408.962 
  200000    1.1527146    286.54216   -1118.9827    -8376.669 
  250000    1.1527146    309.37623    294.50134    -8334.865 
Loop time of 1249.75 on 12 procs for 250000 steps with 1572 atoms

Performance: 17.283 ns/day, 1.389 hours/ns, 200.040 timesteps/s
93.3% CPU use with 12 MPI tasks x no OpenMP threads

MPI task timing breakdown:
Section |  min time  |  avg time  |  max time  |%varavg| %total
---------------------------------------------------------------
Pair    | 701.02     | 759.48     | 805.72     | 143.4 | 60.77
Bond    | 3.3294     | 3.3817     | 3.4471     |   2.2 |  0.27
Kspace  | 306.7      | 352.81     | 411.06     | 210.7 | 28.23
Neigh   | 20.325     | 20.349     | 20.371     |   0.3 |  1.63
Comm    | 36.327     | 36.77      | 37.286     |   6.0 |  2.94
Output  | 0.069667   | 0.069837   | 0.070336   |   0.1 |  0.01
Modify  | 71.786     | 71.954     | 72.09      |   1.1 |  5.76
Other   |            | 4.932      |            |       |  0.39

Nlocal:    131 ave 143 max 117 min
Histogram: 1 0 1 0 4 2 1 0 1 2
Nghost:    4197.67 ave 4257 max 4109 min
Histogram: 1 0 0 2 1 2 1 2 1 2
Neighs:    47755.7 ave 52774 max 39514 min
Histogram: 1 0 1 2 0 0 3 2 0 3

Total # of neighbors = 573068
Ave neighs/atom = 364.547
Ave special neighs/atom = 1.9084
Neighbor list builds = 10048
Dangerous builds = 0
PPPM initialization ...
  extracting TIP4P info from pair style
  using 12-bit tables for long-range coulomb (../kspace.cpp:321)
  G vector (1/distance) = 0.310401
  grid = 24 24 24
  stencil order = 5
  estimated absolute RMS force accuracy = 0.00365923
  estimated relative force accuracy = 1.10196e-05
  using double precision FFTs
  3d grid and FFT values/proc = 5415 1152
Setting up Verlet run ...
  Unit style    : real
  Current step  : 250000
  Time step     : 1
Per MPI rank memory allocation (min/avg/max) = 14.31 | 14.31 | 14.32 Mbytes
Step Density Temp Press TotEng 
  250000    1.1527146    309.37623    294.45122    -8334.865 
  300000    1.1527146    303.72204    166.45227   -8417.1538 
  400000    1.1527146    296.05058    5.2307174   -8429.0706 
  500000    1.1527146     297.2414   -34.755552   -8322.3656 
Loop time of 1260.38 on 12 procs for 250000 steps with 1572 atoms

Performance: 17.138 ns/day, 1.400 hours/ns, 198.352 timesteps/s
92.9% CPU use with 12 MPI tasks x no OpenMP threads

MPI task timing breakdown:
Section |  min time  |  avg time  |  max time  |%varavg| %total
---------------------------------------------------------------
Pair    | 691.15     | 757.93     | 816.5      | 166.8 | 60.13
Bond    | 3.31       | 3.3655     | 3.4428     |   2.7 |  0.27
Kspace  | 306.17     | 364.86     | 432.06     | 240.7 | 28.95
Neigh   | 20.401     | 20.428     | 20.446     |   0.3 |  1.62
Comm    | 36.257     | 36.826     | 37.287     |   5.6 |  2.92
Output  | 0.101      | 0.10146    | 0.10196    |   0.1 |  0.01
Modify  | 71.761     | 71.941     | 72.068     |   1.1 |  5.71
Other   |            | 4.936      |            |       |  0.39

Nlocal:    131 ave 145 max 116 min
Histogram: 1 2 0 1 0 3 0 4 0 1
Nghost:    4230.17 ave 4279 max 4197 min
Histogram: 2 1 2 1 2 1 1 1 0 1
Neighs:    47697.8 ave 52625 max 41664 min
Histogram: 2 0 0 2 1 1 1 2 2 1

Total # of neighbors = 572374
Ave neighs/atom = 364.106
Ave special neighs/atom = 1.9084
Neighbor list builds = 10063
Dangerous builds = 0
PPPM initialization ...
  extracting TIP4P info from pair style
  using 12-bit tables for long-range coulomb (../kspace.cpp:321)
  G vector (1/distance) = 0.310401
  grid = 24 24 24
  stencil order = 5
  estimated absolute RMS force accuracy = 0.00365923
  estimated relative force accuracy = 1.10196e-05
  using double precision FFTs
  3d grid and FFT values/proc = 5415 1152
Setting up Verlet run ...
  Unit style    : real
  Current step  : 500000
  Time step     : 1
Per MPI rank memory allocation (min/avg/max) = 14.31 | 14.31 | 14.32 Mbytes
Step Density Temp Press TotEng 
  500000    1.1527146     297.2414   -34.793854   -8322.3656 
  600000    1.1527146    289.19139   -55.119853   -8401.2377 
  700000    1.1527146    304.45018    1300.9478   -8338.9395 
  750000    1.1527146    298.47008      978.696   -8363.6055 
Loop time of 1256.91 on 12 procs for 250000 steps with 1572 atoms

Performance: 17.185 ns/day, 1.397 hours/ns, 198.900 timesteps/s
93.0% CPU use with 12 MPI tasks x no OpenMP threads

MPI task timing breakdown:
Section |  min time  |  avg time  |  max time  |%varavg| %total
---------------------------------------------------------------
Pair    | 685.28     | 758.75     | 816.04     | 155.8 | 60.37
Bond    | 3.3127     | 3.3759     | 3.4489     |   2.4 |  0.27
Kspace  | 302.95     | 360.41     | 434.35     | 226.6 | 28.67
Neigh   | 20.41      | 20.439     | 20.457     |   0.3 |  1.63
Comm    | 36.241     | 36.809     | 37.333     |   6.0 |  2.93
Output  | 0.06816    | 0.06849    | 0.069061   |   0.1 |  0.01
Modify  | 71.954     | 72.125     | 72.283     |   1.1 |  5.74
Other   |            | 4.937      |            |       |  0.39

Nlocal:    131 ave 140 max 124 min
Histogram: 3 2 0 1 2 0 1 0 0 3
Nghost:    4227.17 ave 4260 max 4201 min
Histogram: 1 3 0 2 1 1 1 1 1 1
Neighs:    47714.2 ave 54835 max 44135 min
Histogram: 2 3 2 1 1 2 0 0 0 1

Total # of neighbors = 572570
Ave neighs/atom = 364.23
Ave special neighs/atom = 1.9084
Neighbor list builds = 10053
Dangerous builds = 0
PPPM initialization ...
  extracting TIP4P info from pair style
  using 12-bit tables for long-range coulomb (../kspace.cpp:321)
  G vector (1/distance) = 0.310401
  grid = 24 24 24
  stencil order = 5
  estimated absolute RMS force accuracy = 0.00365923
  estimated relative force accuracy = 1.10196e-05
  using double precision FFTs
  3d grid and FFT values/proc = 5415 1152
Setting up Verlet run ...
  Unit style    : real
  Current step  : 750000
  Time step     : 1
Per MPI rank memory allocation (min/avg/max) = 14.31 | 14.31 | 14.32 Mbytes
Step Density Temp Press TotEng 
  750000    1.1527146    298.47008     978.8835   -8363.6055 
  800000    1.1527146    291.91517   -117.79205   -8353.6186 
  900000    1.1527146     297.2352    725.90034   -8426.9838 
 1000000    1.1527146    298.58965   -581.63924   -8375.6647 
Loop time of 1251.9 on 12 procs for 250000 steps with 1572 atoms

Performance: 17.254 ns/day, 1.391 hours/ns, 199.696 timesteps/s
93.3% CPU use with 12 MPI tasks x no OpenMP threads

MPI task timing breakdown:
Section |  min time  |  avg time  |  max time  |%varavg| %total
---------------------------------------------------------------
Pair    | 709.72     | 758.75     | 812.7      | 123.9 | 60.61
Bond    | 3.3437     | 3.3936     | 3.447      |   1.5 |  0.27
Kspace  | 301.88     | 355.65     | 404.41     | 181.0 | 28.41
Neigh   | 20.301     | 20.333     | 20.359     |   0.4 |  1.62
Comm    | 36.264     | 36.819     | 37.328     |   6.0 |  2.94
Output  | 0.1011     | 0.10162    | 0.10193    |   0.1 |  0.01
Modify  | 71.733     | 71.913     | 72.044     |   1.1 |  5.74
Other   |            | 4.936      |            |       |  0.39

Nlocal:    131 ave 142 max 122 min
Histogram: 2 0 2 2 1 1 0 2 1 1
Nghost:    4235.5 ave 4294 max 4171 min
Histogram: 1 2 1 1 1 0 0 3 2 1
Neighs:    47680.9 ave 56355 max 42442 min
Histogram: 2 1 2 3 1 1 0 1 0 1

Total # of neighbors = 572171
Ave neighs/atom = 363.976
Ave special neighs/atom = 1.9084
Neighbor list builds = 10085
Dangerous builds = 0
