1572
Atoms. Timestep: 0
Ow 8.61328 24.6652 24.1007
H 8.02625 25.3935 24.3038
H 9.49025 25.0095 24.2698
Ow 19.1996 14.887 24.4402
H 18.3422 15.0928 24.0677
H 19.0991 15.0498 25.3781
Ow 6.92667 1.14347 25.15
H 6.5937 0.492401 0.136248
H 7.41507 1.76194 0.0619356
Ow 19.6489 2.48103 21.9719
H 20.5803 2.55885 22.1789
H 19.3482 1.73774 22.4947
Ow 8.89407 7.91273 24.9089
H 9.31703 8.35288 0.0148056
H 8.55656 8.62498 24.3658
Ow 18.7282 8.46745 2.87642
H 17.8266 8.73327 3.0572
H 19.169 9.27597 2.61524
Ow 14.7965 20.5925 20.9053
H 13.8984 20.3065 21.0724
H 15.0238 20.1917 20.0663
Ow 10.9168 10.8056 5.34715
H 11.4909 10.6354 6.09397
H 11.3846 11.4609 4.82939
Ow 21.9565 11.0351 17.5733
H 21.6422 11.0782 18.4764
H 21.2337 10.6393 17.0863
Ow 12.1466 20.4294 7.89921
H 11.4997 20.88 8.44204
H 12.6268 21.1337 7.46371
Ow 14.5569 15.2451 15.8773
H 14.0043 15.7595 15.2888
H 15.4259 15.2744 15.4771
Ow 13.4132 2.47074 22.2733
H 12.6369 2.88605 22.649
H 13.07 1.89202 21.5925
Ow 19.8791 2.37265 16.3745
H 20.7236 1.92206 16.3739
H 19.4413 2.06301 15.5816
Ow 1.01512 22.9616 0.496799
H 1.16518 23.1566 25.2032
H 1.0822 22.0086 0.555163
Ow 12.0869 10.3093 7.72928
H 12.5675 9.81581 8.39397
H 12.0506 11.202 8.07268
Ow 14.9946 4.63996 13.1109
H 15.2549 5.22882 12.4026
H 14.2922 4.10893 12.7355
Ow 2.98273 21.6734 13.8329
H 2.12701 21.3567 14.1222
H 2.89394 22.6263 13.8193
Ow 19.337 11.1887 22.8921
H 19.6034 10.2761 23.0041
H 18.8897 11.4101 23.7089
Ow 7.75974 4.43115 9.92421
H 8.14065 4.48568 9.04776
H 8.23487 5.08763 10.4336
Ow 23.6898 14.3329 21.6844
H 22.9428 13.7702 21.8884
H 23.6108 14.506 20.7463
Ow 7.18066 9.02518 22.8847
H 7.59576 9.3987 22.1073
H 6.37142 8.63126 22.5588
Ow 0.590507 0.723165 0.125334
H 0.541439 1.35554 25.0399
H 25.3366 0.365124 0.190534
Ow 19.3976 2.75325 8.44804
H 19.6919 2.43416 9.30113
H 18.9684 3.58728 8.63882
Ow 15.1161 15.3611 6.2855
H 14.8867 14.6626 5.67248
H 16.0365 15.549 6.1017
Ow 0.394775 8.27008 16.8787
H 25.2426 7.89874 17.284
H 1.08732 8.13267 17.525
Ow 14.2429 21.901 17.6553
H 14.3223 21.9927 16.7059
H 13.322 22.0874 17.8382
Ow 24.8027 10.8172 17.137
H 23.8867 10.5596 17.033
H 25.2379 10.0297 17.4636
Ow 17.3877 21.2726 4.7975
H 17.2304 21.8309 5.55893
H 17.0097 20.4267 5.03797
Ow 18.5537 11.85 17.4672
H 19.0195 11.0195 17.5651
H 17.6321 11.6248 17.5948
Ow 23.5844 12.1027 24.6886
H 23.3119 11.2792 25.0933
H 24.493 12.2177 24.9669
Ow 17.3785 22.4106 8.83277
H 17.5623 23.1796 9.37226
H 17.5033 22.7131 7.93324
Ow 11.1644 6.9683 6.5584
H 10.2124 7.03351 6.63403
H 11.3231 6.05967 6.3026
Ow 4.16857 10.9371 10.0601
H 4.14251 11.7147 10.6177
H 4.31174 10.2111 10.6673
Ow 8.82583 22.513 19.5182
H 8.93908 22.8385 20.4112
H 9.70673 22.5273 19.144
Ow 21.389 17.6899 20.2041
H 21.6796 18.2703 20.9077
H 21.9543 17.909 19.4634
Ow 0.552498 23.7409 6.32687
H 1.19858 24.3025 5.89852
H 0.0715524 24.3292 6.90896
Ow 20.7986 0.968003 25.316
H 20.4349 0.0832693 25.2819
H 21.7469 0.838109 25.3071
Ow 14.7572 9.60652 21.0897
H 13.908 9.68786 20.6555
H 14.5425 9.43943 22.0074
Ow 20.9322 0.169532 12.8389
H 20.1854 0.622614 13.2303
H 20.7262 24.8712 12.9352
Ow 16.6069 8.04818 6.10481
H 17.1624 7.45665 5.59711
H 16.8091 8.91931 5.76355
Ow 4.47147 18.3978 22.6757
H 5.16683 18.3689 22.0185
H 4.93214 18.5036 23.5081
Ow 14.5803 14.1171 3.51409
H 15.5269 14.094 3.3743
H 14.3441 13.21 3.70797
Ow 24.0096 0.909724 18.5853
H 24.6953 1.30712 19.1221
H 23.2967 1.54838 18.5952
Ow 13.6309 12.3587 25.4561
H 13.5501 13.2417 0.185259
H 13.203 12.4084 24.6013
Ow 17.1145 15.3769 14.8201
H 17.7335 15.658 15.494
H 17.6096 14.759 14.2822
Ow 6.82322 25.3111 3.2616
H 6.39418 24.6021 3.7406
H 6.37821 0.473518 3.55842
Ow 10.7074 12.2245 0.791814
H 10.0097 12.8704 0.902632
H 11.0822 12.421 25.5646
Ow 16.4531 3.12114 5.73287
H 16.7802 2.65785 6.50401
H 15.8986 2.48164 5.28591
Ow 17.6711 23.3785 19.8556
H 17.9022 22.9523 20.6809
H 17.2783 24.2112 20.1173
Ow 1.93775 5.5493 12.8735
H 1.83011 5.64948 11.9276
H 1.7425 4.62731 13.0409
Ow 18.1607 10.2996 13.5138
H 17.5305 10.8731 13.0777
H 18.1294 9.48415 13.0134
Ow 21.771 18.8039 11.0982
H 22.5362 18.859 11.6707
H 22.1069 18.4291 10.284
Ow 13.6172 1.78104 12.9739
H 13.178 2.23026 12.2517
H 13.1083 0.980771 13.1037
Ow 18.4436 15.7098 19.447
H 17.6714 15.4733 18.9332
H 18.3188 16.6356 19.6556
Ow 12.0901 22.2768 23.471
H 12.231 22.6582 22.6045
H 12.9463 22.3242 23.8962
Ow 1.11243 23.2232 23.2894
H 1.21763 22.4307 22.763
H 1.7433 23.8416 22.9209
Ow 19.3388 2.28503 11.2443
H 18.4472 2.09964 10.9495
H 19.6207 1.47939 11.6776
Ow 14.3389 25.539 18.1875
H 14.8064 25.1315 17.4583
H 15.0303 0.223215 18.7694
Ow 24.9693 20.0337 3.62708
H 24.7714 20.0316 4.5636
H 24.9531 19.1101 3.37627
Ow 9.31398 23.8459 15.5816
H 10.2578 23.7185 15.4855
H 9.22137 24.3567 16.3857
Ow 3.53509 15.5121 24.3616
H 3.72109 16.3332 23.9061
H 4.04554 14.8546 23.8891
Ow 12.1262 15.6179 20.606
H 11.7942 15.5655 21.5022
H 12.115 14.7135 20.2926
Ow 11.8908 9.40579 14.0533
H 11.0807 9.36 14.5611
H 12.1602 10.3223 14.1134
Ow 23.733 15.4999 3.85767
H 23.4243 14.7497 3.34954
H 23.9546 15.1347 4.71425
Ow 4.89428 13.5151 11.1442
H 5.44152 13.9879 11.7713
H 4.95111 14.0305 10.3396
Ow 19.0505 20.7934 23.0399
H 19.4552 20.9227 22.1821
H 19.7454 20.9962 23.6661
Ow 6.94104 0.893567 14.7061
H 7.28315 1.54315 15.3203
H 7.67319 0.711274 14.1171
Ow 5.20651 20.4937 12.728
H 4.29114 20.7686 12.6754
H 5.64359 20.9796 12.0286
Ow 3.63999 21.5989 2.39535
H 3.14198 21.9135 1.64088
H 4.48934 21.3458 2.03366
Ow 24.0215 3.0822 14.7311
H 24.7688 2.51339 14.916
H 24.1587 3.37314 13.8295
Ow 24.0292 6.89132 6.32881
H 23.315 6.3886 5.93697
H 23.719 7.1024 7.20943
Ow 2.02778 5.03392 9.92104
H 2.05084 5.78557 9.32883
H 1.96739 4.27403 9.34212
Ow 18.0924 24.4865 10.2566
H 18.9353 24.8372 9.96899
H 17.7045 25.1903 10.7766
Ow 20.8206 21.8612 25.0763
H 21.6991 22.0488 25.4069
H 20.5648 21.0525 25.52
Ow 3.30005 7.06005 2.06042
H 3.80105 6.78952 2.82987
H 2.39886 7.13365 2.37454
Ow 21.6029 16.8087 25.1484
H 21.519 16.1678 0.22294
H 21.0541 17.5429 25.4242
Ow 13.7985 16.3995 11.1794
H 13.7153 16.5692 12.1178
H 14.4354 15.6875 11.1199
Ow 14.9325 24.6298 11.6668
H 14.8406 24.759 10.7228
H 15.3214 23.7595 11.7532
Ow 12.251 20.0086 21.6874
H 11.8583 20.727 22.1833
H 11.5173 19.6123 21.2174
Ow 16.6592 18.3722 4.3313
H 17.4927 18.6309 3.93814
H 16.8666 17.5878 4.83913
Ow 4.38443 3.39364 25.2044
H 4.94228 4.09424 24.8665
H 4.82802 3.09561 0.367116
Ow 9.02218 7.06998 20.3098
H 8.1186 6.8435 20.0895
H 9.15459 6.70519 21.1848
Ow 0.542222 17.1671 11.728
H 0.830451 16.8451 10.8739
H 0.228711 18.0551 11.5563
Ow 11.0361 14.4988 4.6281
H 11.1234 15.4519 4.61352
H 10.5287 14.3164 5.41902
Ow 16.0378 3.79225 15.5739
H 15.6645 4.13443 14.7616
H 16.0794 2.84555 15.4388
Ow 7.62334 11.5006 16.1381
H 8.12461 10.9414 15.5446
H 7.54971 10.9898 16.9442
Ow 2.31115 12.662 1.61627
H 2.62136 13.5116 1.30307
H 2.17088 12.7887 2.55461
Ow 17.1237 0.646361 3.62413
H 16.2199 0.593824 3.93491
H 17.46 25.3859 3.71222
Ow 8.0814 23.0194 13.1769
H 8.58076 23.3103 13.94
H 8.72182 22.5641 12.6303
Ow 7.73576 1.44369 19.201
H 8.38363 1.75714 19.8321
H 7.06588 1.01807 19.7361
Ow 15.122 20.6554 24.0196
H 15.2627 20.9625 23.124
H 15.8762 20.0949 24.2023
Ow 2.57431 13.6027 18.7861
H 1.72153 13.1755 18.8671
H 3.09857 12.9949 18.2646
Ow 20.3941 8.37391 6.34576
H 19.6106 8.11285 6.82973
H 20.5975 7.61917 5.79328
Ow 10.9645 14.4985 13.1219
H 11.4332 15.2408 12.7405
H 10.3464 14.23 12.4421
Ow 13.3342 2.21975 9.14637
H 12.5991 2.15449 9.75601
H 13.3841 3.15071 8.92945
Ow 0.782698 20.3981 14.6154
H 0.613281 20.3663 15.557
H 25.5725 20.6387 14.2281
Ow 10.0201 9.54595 1.38162
H 10.0002 10.404 0.957906
H 10.8968 9.48591 1.76114
Ow 15.9761 15.4001 18.2475
H 15.7236 14.5131 18.5039
H 15.4869 15.5654 17.4416
Ow 20.3352 25.5066 9.43252
H 20.5459 0.360441 8.63483
H 20.9989 24.8183 9.47713
Ow 18.1198 23.7197 3.05647
H 18.7443 23.2298 3.59143
H 18.3664 23.5175 2.15396
Ow 25.4858 12.9088 18.7235
H 24.9116 13.6472 18.5202
H 25.0618 12.155 18.3131
Ow 13.1453 19.6099 11.9689
H 13.7888 20.3184 11.9538
H 12.6304 19.7702 12.7597
Ow 7.38265 10.927 1.83173
H 7.27865 11.3561 0.98246
H 7.93898 10.1693 1.65121
Ow 23.8431 20.8174 13.63
H 23.3131 21.6007 13.4827
H 23.2683 20.2268 14.1169
Ow 19.9538 25.4617 5.08739
H 19.3593 24.8411 5.50894
H 19.5915 0.690825 5.29839
Ow 11.988 22.7669 15.443
H 11.7915 22.9004 16.3703
H 11.9068 21.8218 15.3141
Ow 5.08447 13.8641 17.4035
H 5.49422 13.0867 17.783
H 4.88663 13.6147 16.5008
Ow 0.0886048 3.177 1.33618
H 24.8887 3.49582 0.984876
H 0.189359 2.30319 0.958627
Ow 5.53941 14.3089 8.36844
H 4.98562 15.0175 8.04069
H 6.32316 14.7492 8.69715
Ow 2.7943 18.5417 25.5953
H 2.1496 18.0769 25.0618
H 2.98633 17.9421 0.684818
Ow 22.7379 1.48691 8.00117
H 23.4454 0.87052 7.81226
H 22.6225 1.43641 8.95006
Ow 8.11322 19.0609 22.6541
H 7.38181 19.6564 22.8175
H 8.64462 19.1098 23.4488
Ow 13.3109 4.818 8.235
H 14.2624 4.8588 8.33158
H 13.0016 5.66971 8.5435
Ow 3.88691 10.9289 7.26959
H 4.0263 11.1556 8.18904
H 2.95031 10.7412 7.20802
Ow 25.1378 0.77053 11.2366
H 25.0891 25.5303 11.629
H 25.2774 0.606367 10.304
Ow 14.613 21.8283 9.37417
H 15.4551 22.1522 9.05469
H 14.7283 21.7534 10.3214
Ow 12.0963 3.17104 18.6525
H 11.5888 3.27691 17.8479
H 11.8844 3.94553 19.1736
Ow 23.0557 11.6541 8.39768
H 22.5204 10.9727 8.80439
H 23.3708 12.1817 9.13155
Ow 11.0585 24.8672 7.36941
H 11.1258 25.4911 6.64656
H 11.9203 24.4526 7.40953
Ow 2.34938 25.0736 4.77424
H 2.20031 25.3816 3.88028
H 2.66196 0.21468 5.24519
Ow 7.43017 8.09174 12.1758
H 6.59636 8.292 11.7505
H 8.04342 8.73214 11.8152
Ow 17.2996 13.983 3.76128
H 17.913 13.2495 3.71724
H 17.6734 14.5693 4.41916
Ow 17.0685 21.2393 0.970654
H 16.9953 20.5845 0.276297
H 16.4894 21.9491 0.693196
Ow 2.53777 3.22078 15.576
H 1.66875 2.81965 15.5649
H 3.04664 2.70848 14.9476
Ow 24.7035 5.9452 22.7308
H 24.0559 5.29801 22.4516
H 24.1887 6.72398 22.9424
Ow 0.243774 12.5979 11.3976
H 25.1862 12.2008 11.9304
H 1.05254 12.4143 11.8755
Ow 23.3975 24.7917 16.7051
H 22.9887 25.5043 16.214
H 23.7101 25.2037 17.5106
Ow 0.555838 14.2852 23.2162
H 25.429 14.2588 22.6327
H 0.66705 15.2131 23.4233
Ow 11.7145 5.90165 19.952
H 10.7648 6.01989 19.9657
H 12.0678 6.78 20.0932
Ow 6.42637 3.30308 1.80655
H 7.33903 3.01781 1.85014
H 6.46467 4.25068 1.93623
Ow 9.25143 15.7652 19.8029
H 9.09703 16.4522 19.1545
H 10.1564 15.8998 20.0843
Ow 5.04888 11.0922 24.3998
H 5.00663 11.9068 23.8988
H 4.45033 10.4996 23.9452
Ow 2.2215 17.6129 14.9353
H 3.06358 18.0656 14.8879
H 1.57376 18.29 14.7396
Ow 11.4605 6.12478 1.51586
H 10.6894 6.53893 1.90336
H 11.8957 5.69284 2.25085
Ow 16.6033 12.3389 7.12612
H 15.8056 12.6712 7.53762
H 16.9737 11.7372 7.77191
Ow 12.8913 6.34376 23.2856
H 12.5145 6.97597 23.8976
H 12.315 5.5816 23.3428
Ow 24.1265 24.3645 23.4674
H 23.4551 23.7985 23.0865
H 24.9333 23.8528 23.4088
Ow 19.8734 8.47942 23.4145
H 20.8054 8.30592 23.282
H 19.5576 7.72583 23.9131
Ow 20.1646 19.3389 5.44659
H 19.8497 19.728 6.26247
H 19.5673 19.6708 4.77624
Ow 16.6255 1.29543 10.693
H 16.0081 1.09366 9.98988
H 16.1024 1.24635 11.4931
Ow 21.4661 7.6085 19.4059
H 22.0944 7.92952 20.0527
H 21.2859 6.7072 19.6731
Ow 19.605 19.4551 14.7552
H 19.2641 19.7912 13.9263
H 20.4437 19.0551 14.5252
Ow 24.3784 24.1967 4.38591
H 25.1414 24.0973 4.95534
H 24.5575 23.6215 3.6421
Ow 20.8803 12.4114 1.27775
H 20.2629 12.3547 2.007
H 20.999 11.5053 0.992831
Ow 12.8706 1.62601 0.383544
H 13.595 2.01348 0.874914
H 12.4526 1.02839 1.0035
Ow 1.89244 1.45154 8.08435
H 2.0972 1.31686 7.15906
H 1.11455 0.91548 8.23851
Ow 21.8888 25.463 20.742
H 22.4647 0.411942 20.2443
H 21.0893 25.4113 20.2182
Ow 9.3767 24.4848 3.00279
H 8.61224 25.0607 3.01339
H 9.4242 24.1655 2.10165
Ow 2.99149 15.0356 5.3646
H 3.78205 14.9989 4.82618
H 2.71465 14.123 5.44698
Ow 0.144734 4.51951 4.07015
H 25.0905 4.07347 3.57305
H 0.0922074 4.13844 4.94665
Ow 21.0578 16.5138 6.82975
H 20.2333 16.9985 6.7926
H 21.6567 17.0946 7.29899
Ow 20.9315 10.9295 6.14971
H 20.7756 9.99634 6.29516
H 20.0791 11.2773 5.88757
Ow 22.744 9.92821 0.285834
H 22.8666 9.37259 1.05556
H 22.7826 9.32357 25.1762
Ow 16.3664 11.9603 21.7955
H 16.1906 11.8171 22.7255
H 16.2087 11.1088 21.3877
Ow 22.1329 23.1238 21.6993
H 21.9712 23.9504 21.2445
H 21.4039 22.5604 21.4396
Ow 11.7421 1.38576 5.61915
H 12.6539 1.29582 5.34183
H 11.6048 2.33043 5.68964
Ow 22.3439 19.2049 2.31837
H 21.4868 19.5753 2.10718
H 22.7754 19.8811 2.84064
Ow 14.6868 2.69705 2.29445
H 14.6152 1.96575 2.90788
H 14.1392 3.38386 2.67479
Ow 24.9541 22.6386 2.54636
H 0.152344 22.8158 2.10319
H 25.0275 21.7301 2.83876
Ow 24.7454 1.74584 22.6361
H 24.6688 0.800131 22.7625
H 23.8456 2.06836 22.6859
Ow 13.6088 12.5133 16.1853
H 14.3438 12.0667 16.6054
H 13.848 13.4399 16.2049
Ow 8.36491 7.53649 7.30807
H 8.7617 6.66925 7.38987
H 8.76726 8.05142 8.0075
Ow 10.8762 15.6428 23.1174
H 11.0798 14.722 23.2815
H 9.92153 15.6903 23.1685
Ow 14.6564 22.1629 14.9015
H 14.874 22.1448 13.9695
H 13.73 22.4023 14.927
Ow 11.5169 18.1703 16.7487
H 11.633 18.9654 16.2285
H 11.2039 17.5175 16.1225
Ow 23.4698 20.4512 24.4511
H 23.8377 19.7251 24.9547
H 23.5624 21.2121 25.0243
Ow 18.4327 6.57628 4.82054
H 18.815 7.26084 4.2715
H 18.2271 5.86705 4.21147
Ow 5.86792 18.3064 9.18627
H 5.70252 18.0585 10.0959
H 6.20297 17.5084 8.77728
Ow 2.66137 3.47568 3.04602
H 1.81526 3.88146 3.23488
H 3.28736 3.96746 3.57754
Ow 7.83584 8.74775 4.69882
H 6.96061 9.12304 4.79558
H 7.95602 8.2135 5.4839
Ow 15.103 18.5742 2.12587
H 15.7505 18.5587 2.83065
H 15.27 17.7734 1.62887
Ow 20.7903 3.52172 24.6795
H 21.4023 3.54767 23.9439
H 20.7466 2.59698 24.9228
Ow 4.15764 17.1478 2.55438
H 3.43993 16.5212 2.46194
H 4.73574 16.9613 1.81461
Ow 18.1863 7.89174 12.2138
H 18.7478 7.30389 12.7192
H 18.3832 7.68503 11.3001
Ow 23.8063 18.1159 0.229772
H 23.0076 17.6541 25.6061
H 23.5739 18.567 1.04135
Ow 20.7815 16.0776 14.453
H 20.3062 16.2918 13.6502
H 21.3888 16.8074 14.5743
Ow 15.0371 16.5609 20.7731
H 14.1164 16.3446 20.625
H 15.4408 16.497 19.9076
Ow 18.4174 7.06013 21.4036
H 17.8492 6.67056 22.0682
H 18.973 7.66914 21.89
Ow 15.2795 19.0678 14.5791
H 15.8528 19.1477 15.3414
H 15.016 19.9666 14.3817
Ow 10.5193 2.11108 13.9145
H 10.8575 2.73468 13.2718
H 11.0547 1.327 13.7929
Ow 20.1148 12.3261 9.3274
H 19.387 11.7101 9.24358
H 19.7388 13.175 9.09435
Ow 2.35746 0.740457 2.36633
H 2.04799 0.748461 1.46057
H 2.39918 1.66416 2.61385
Ow 3.17206 18.9505 18.8082
H 3.0041 18.3486 19.5333
H 2.32553 19.3637 18.6383
Ow 19.5494 9.24389 18.331
H 18.9688 9.52719 19.0373
H 20.1402 8.61412 18.744
Ow 21.9144 2.6014 19.1216
H 22.0678 2.88439 20.0231
H 22.2343 3.32644 18.5848
Ow 12.2296 22.9171 2.48607
H 12.7418 22.8458 1.68061
H 12.6604 23.6122 2.98366
Ow 14.2789 19.7552 4.80882
H 13.535 19.1836 4.9987
H 15.0467 19.1942 4.91848
Ow 18.408 13.5904 12.7887
H 19.2895 13.5991 12.4157
H 17.9089 13.0124 12.2117
Ow 12.5247 18.0747 19.167
H 12.0857 17.3456 19.6052
H 12.2124 18.0345 18.2631
Ow 20.4266 6.82562 1.64681
H 21.2702 7.27639 1.68549
H 19.8451 7.35755 2.19007
Ow 0.343786 23.847 12.3908
H 0.190233 23.417 13.2321
H 1.24664 24.1607 12.4429
Ow 22.9689 19.3341 22.0731
H 23.7354 18.7658 21.9976
H 23.0654 19.755 22.9273
Ow 9.47787 14.8223 0.682057
H 8.8959 15.0285 25.582
H 8.94351 14.9689 1.46257
Ow 15.7313 11.2092 17.1296
H 15.9978 10.6407 16.4071
H 14.9807 10.763 17.5218
Ow 11.3393 12.7765 8.77562
H 11.0307 12.8198 9.68067
H 12.0311 13.4363 8.72612
Ow 5.58181 24.68 11.202
H 5.96817 25.5549 11.2418
H 4.80378 24.7358 11.7568
Ow 20.7717 15.3234 1.83565
H 19.8156 15.3215 1.7899
H 21.0263 14.4394 1.57131
Ow 3.26138 1.80547 5.71243
H 3.4632 2.70075 5.98439
H 3.85153 1.63914 4.97738
Ow 20.8717 4.41414 12.183
H 20.9698 4.93391 11.3852
H 20.3274 3.67181 11.9203
Ow 19.7825 6.38834 13.7549
H 19.3457 5.80606 14.3765
H 20.1872 5.79938 13.1181
Ow 15.518 24.6129 15.9934
H 16.4113 24.3613 16.2279
H 15.1359 23.8195 15.6182
Ow 18.7523 0.901376 14.2326
H 18.6964 0.210365 14.8926
H 17.8417 1.09534 14.0105
Ow 2.46536 10.5106 19.034
H 2.40564 9.5847 18.7988
H 2.90832 10.5146 19.8825
Ow 4.19329 11.0489 21.0243
H 3.66298 11.771 21.3613
H 4.97502 11.4711 20.6681
Ow 4.803 6.56605 4.31095
H 5.60716 6.50454 3.79541
H 4.81499 7.45354 4.66935
Ow 7.78643 19.9327 15.0855
H 8.33225 20.2735 14.3768
H 7.90438 18.9837 15.0442
Ow 6.29972 10.0258 8.50148
H 5.76403 9.3904 8.02659
H 5.71062 10.3903 9.16204
Ow 1.95462 6.38204 5.38871
H 1.50144 5.77369 4.80496
H 2.88184 6.16792 5.28553
Ow 4.4796 21.5683 8.68637
H 3.92826 22.3095 8.93734
H 5.17165 21.5494 9.34739
Ow 0.611777 20.4194 17.3058
H 0.67729 21.1273 17.9467
H 25.342 20.1067 17.3849
Ow 23.7739 14.0921 10.2323
H 24.362 13.7063 10.8816
H 24.3324 14.2623 9.47374
Ow 17.5216 1.20037 1.12177
H 17.4812 0.388801 0.615849
H 17.0378 1.00699 1.92472
Ow 4.71476 1.18302 20.7324
H 5.17378 0.388896 20.4587
H 4.84968 1.79858 20.0119
Ow 3.30346 2.18287 17.895
H 3.47838 1.24828 17.7846
H 2.90018 2.45067 17.0692
Ow 1.13542 11.1 7.43378
H 0.924091 11.8938 7.92514
H 1.33469 11.4104 6.55051
Ow 6.22448 2.23445 8.23483
H 5.44878 1.67367 8.2278
H 6.76294 1.89033 8.94748
Ow 22.6159 24.8362 2.30217
H 23.1507 24.846 3.096
H 22.8268 24.003 1.88095
Ow 13.4177 16.9764 13.875
H 14.056 17.5665 14.2758
H 12.7099 17.5509 13.5832
Ow 10.7852 9.68501 18.5665
H 10.6313 9.05501 17.8625
H 10.7701 10.5381 18.1327
Ow 23.4118 22.9256 0.173756
H 24.216 22.9445 0.692472
H 23.5612 23.5635 25.1073
Ow 6.04053 12.4724 6.31324
H 6.04171 13.286 6.81745
H 5.25199 12.0126 6.60141
Ow 19.4705 13.5646 15.3824
H 19.132 13.4412 14.4956
H 19.1117 12.8301 15.8805
Ow 0.0778002 22.5513 18.735
H 25.0729 22.1103 19.298
H 25.2434 22.6921 17.9107
Ow 16.9487 22.4444 22.7834
H 16.9111 22.906 23.6212
H 17.5916 21.7488 22.9213
Ow 2.61992 25.1592 21.3883
H 3.21493 0.207639 21.072
H 2.68313 24.4622 20.7353
Ow 8.50278 18.0304 2.37981
H 8.71848 18.0719 1.44816
H 9.32698 17.7968 2.80682
Ow 18.2996 11.9051 0.122178
H 19.1744 12.2741 0.2436
H 17.9206 11.892 1.00105
Ow 22.2129 1.17424 15.4659
H 22.8385 1.77185 15.0564
H 21.6854 0.84378 14.7387
Ow 18.5042 18 7.77324
H 18.4272 17.4309 7.00745
H 18.2516 17.4449 8.51106
Ow 11.9689 24.055 11.6641
H 11.5684 24.6957 11.0764
H 12.9069 24.2397 11.6171
Ow 6.48279 3.69139 5.7644
H 7.21113 4.27701 5.5575
H 6.85491 3.05028 6.36999
Ow 15.6823 4.34147 21.5154
H 15.0656 3.71116 21.8878
H 16.5097 4.15954 21.9608
Ow 21.4244 3.5278 6.53848
H 20.7135 3.59537 7.1759
H 22.0039 2.85489 6.8957
Ow 9.00013 13.8035 10.8538
H 8.86919 14.4413 10.1521
H 8.31704 14.0063 11.4929
Ow 8.08916 2.62271 16.6087
H 8.0601 2.2002 17.4671
H 9.00377 2.88346 16.5004
Ow 13.8231 14.6782 1.06166
H 14.5611 15.1759 0.709569
H 14.091 14.449 1.95156
Ow 4.29922 8.07673 25.3176
H 3.99831 7.46077 0.354177
H 3.92829 7.74435 24.5001
Ow 17.3862 4.76372 3.21627
H 16.6167 5.23877 2.90257
H 17.0592 4.2275 3.93861
Ow 16.8087 19.2767 16.7242
H 16.236 19.1286 17.4768
H 17.5233 18.6505 16.8397
Ow 17.7373 10.5465 9.05239
H 17.3675 10.7054 9.92085
H 18.1119 9.66741 9.10827
Ow 14.9703 12.8497 19.514
H 15.2776 12.0304 19.126
H 15.3254 12.8424 20.4029
Ow 17.2699 1.22623 22.984
H 16.9925 0.947129 22.1114
H 17.3515 0.412589 23.4815
Ow 6.66617 5.48558 21.6806
H 6.43731 4.64307 22.0731
H 7.5592 5.65534 21.9805
Ow 13.7669 8.07698 5.30089
H 13.2922 7.88203 6.10891
H 14.6865 8.10895 5.56455
Ow 14.8434 8.85754 23.74
H 15.1228 9.6689 24.1642
H 14.4616 8.33657 24.4465
Ow 11.8329 5.84295 12.6928
H 11.7982 6.02313 13.6322
H 10.9353 5.97856 12.3891
Ow 15.2931 19.2272 8.08678
H 14.8459 19.9319 8.55548
H 15.0314 19.3427 7.17332
Ow 5.45189 1.99593 3.97166
H 6.01363 2.49833 4.56181
H 5.60689 2.37939 3.10843
Ow 2.39271 4.47616 19.2191
H 2.80803 4.86919 18.4514
H 2.56677 3.5389 19.1326
Ow 8.49405 0.104621 12.5355
H 9.34146 0.264819 12.9508
H 8.27421 24.8365 12.7779
Ow 12.9173 5.13698 3.72206
H 12.5686 4.90876 4.58378
H 13.5745 5.80995 3.89963
Ow 11.9886 9.20691 3.30696
H 11.4415 9.72392 3.89826
H 12.6082 8.75922 3.88312
Ow 15.7147 6.63673 11.4397
H 16.4994 7.13007 11.6789
H 15.8199 6.45663 10.5055
Ow 19.5278 6.01091 24.9001
H 19.8774 6.3364 0.0982199
H 19.9611 5.16713 24.7717
Ow 13.1439 7.88597 0.273569
H 13.1814 8.77584 0.624233
H 12.4287 7.46868 0.75373
Ow 11.0635 3.67265 0.304297
H 11.7382 3.08213 0.639494
H 11.15 4.46302 0.837278
Ow 1.21311 15.886 16.7634
H 0.605327 16.4186 17.2765
H 1.5912 16.4962 16.1302
Ow 6.20094 3.67581 12.7415
H 5.66743 4.42599 13.0039
H 5.68935 2.91225 13.0089
Ow 23.6663 7.31393 13.0886
H 23.0792 7.48944 13.8239
H 23.4258 6.43562 12.7937
Ow 0.392007 3.71465 6.62701
H 0.875962 3.12907 7.20934
H 25.5699 4.31774 7.21591
Ow 16.2215 9.27609 15.1737
H 16.962 9.43727 14.5889
H 16.5438 8.62256 15.7944
Ow 3.08413 1.61656 10.5918
H 2.55943 0.841206 10.7911
H 2.95861 1.75646 9.65322
Ow 2.16124 9.68212 3.69469
H 1.44371 9.24039 4.14885
H 2.22346 10.5377 4.11937
Ow 14.7932 25.5451 9.08741
H 14.1338 0.595399 9.21683
H 15.2026 0.131617 8.2501
Ow 7.01006 16.3112 16.95
H 7.51718 15.5001 16.985
H 7.59728 16.977 17.3079
Ow 15.9244 18.5735 11.2354
H 15.3575 18.9862 11.887
H 15.4394 17.7985 10.9518
Ow 21.4652 6.89483 10.8317
H 21.7952 6.38503 10.0918
H 20.63 7.24873 10.5258
Ow 19.811 17.1804 12.0823
H 19.2487 17.1763 11.3077
H 20.4411 17.8818 11.9178
Ow 15.9204 11.3066 24.5166
H 16.7462 11.511 24.9554
H 15.2723 11.8568 24.9566
Ow 21.7558 23.0009 5.32761
H 22.5894 22.989 4.85727
H 21.4159 23.8853 5.19125
Ow 17.5246 7.18129 17.1524
H 17.9489 6.36041 16.9025
H 18.2427 7.74428 17.4415
Ow 2.62725 13.2025 21.6911
H 2.30625 13.5535 20.8604
H 1.90342 13.3349 22.3033
Ow 25.543 8.17436 19.7573
H 24.9176 8.4218 20.4384
H 25.1272 7.4404 19.3049
Ow 17.9344 4.38757 22.9708
H 18.4682 5.1643 23.1381
H 18.5521 3.74088 22.6295
Ow 24.4274 14.1416 6.1973
H 25.2047 13.5831 6.18917
H 24.6971 14.9212 6.68265
Ow 23.3429 9.33481 21.2286
H 24.1114 9.90527 21.2138
H 23.2763 9.04561 22.1387
Ow 2.52396 7.84457 18.607
H 2.10079 7.32405 19.2898
H 2.97075 7.20112 18.057
Ow 22.1121 3.9268 3.6211
H 21.3208 3.8055 3.09642
H 21.8565 3.66401 4.50529
Ow 4.4339 4.65077 7.20924
H 4.75279 5.52494 7.43367
H 5.12607 4.27518 6.66512
Ow 1.45119 20.7463 21.4044
H 0.529222 20.6749 21.1572
H 1.62854 19.9484 21.9026
Ow 16.371 3.0957 19.2716
H 16.1587 3.73311 19.9533
H 16.184 2.24604 19.6707
Ow 11.0328 3.94799 23.2615
H 10.3481 3.45233 22.8125
H 10.9199 3.72943 24.1866
Ow 13.0646 18.4779 23.9399
H 12.5593 18.6944 23.1563
H 13.7629 19.1322 23.9635
Ow 4.66812 18.772 15.0279
H 5.24105 18.0249 15.2008
H 5.11682 19.2646 14.3407
Ow 11.2828 9.67058 23.2354
H 11.5766 10.5594 23.4351
H 11.1753 9.25542 24.0911
Ow 6.29062 21.4577 1.26132
H 7.00874 21.3214 1.87934
H 6.27959 22.403 1.11102
Ow 1.97502 6.45797 20.9927
H 2.16961 5.63187 20.5501
H 1.0438 6.60529 20.8273
Ow 5.15308 14.2024 20.5967
H 4.23074 14.2146 20.8524
H 5.13851 14.0407 19.6534
Ow 0.0766937 23.5535 15.6327
H 24.8601 23.8571 15.9566
H 0.650534 24.3156 15.7116
Ow 11.7749 4.1486 6.08819
H 12.3171 4.30267 6.86186
H 10.9078 3.94594 6.43926
Ow 25.6315 10.9395 20.7389
H 25.5236 11.7458 20.2345
H 0.617482 10.417 20.227
Ow 15.9972 1.06492 14.3031
H 15.2151 1.32457 13.8161
H 15.6989 0.3603 14.8782
Ow 8.40352 18.955 9.80588
H 8.68453 19.8393 9.57065
H 7.46932 18.9369 9.5981
Ow 6.33562 21.8102 10.6171
H 7.16663 22.0451 10.2042
H 6.10017 22.5788 11.1368
Ow 6.98275 17.34 6.63567
H 7.29801 16.6049 7.16147
H 6.33369 16.9536 6.04774
Ow 9.80543 21.1126 9.26009
H 9.78202 21.3467 10.1879
H 9.49631 21.897 8.8068
Ow 14.1622 10.2257 10.347
H 13.4126 10.8016 10.4976
H 14.9188 10.7362 10.6354
Ow 1.81609 8.34352 11.8822
H 2.73585 8.14333 11.7085
H 1.46121 8.59955 11.0309
Ow 10.1427 6.12862 14.8808
H 9.83502 6.82815 15.4572
H 9.46472 6.05567 14.209
Ow 19.6112 24.2097 0.397373
H 18.8636 24.3544 25.4488
H 20.0706 23.4622 0.0147757
Ow 25.443 15.414 0.825098
H 25.2716 16.2561 1.24659
H 25.4941 15.6189 25.5229
Ow 1.26728 2.70148 24.0028
H 1.46901 3.56476 23.6418
H 0.417558 2.47571 23.6243
Ow 12.1113 12.146 13.732
H 11.5506 12.8836 13.4914
H 12.5759 12.4429 14.5144
Ow 2.07048 25.3642 15.5326
H 2.3146 25.0872 14.6494
H 2.81558 25.1116 16.0778
Ow 9.3984 14.0335 6.91887
H 8.873 14.4062 7.62691
H 10.079 13.5294 7.36479
Ow 3.62376 5.43897 17.0139
H 4.4916 5.04211 17.0887
H 3.11276 4.80542 16.5101
Ow 11.0557 1.08879 2.75886
H 10.5848 0.256981 2.81005
H 11.2513 1.31023 3.66931
Ow 8.992 6.01747 22.8341
H 8.81862 6.68858 23.4943
H 9.74527 5.53488 23.1746
Ow 11.0467 12.243 17.5598
H 11.801 12.0389 17.0069
H 11.4154 12.358 18.4357
Ow 13.512 9.72299 18.0656
H 13.5923 9.16406 17.2927
H 12.5834 9.68384 18.2946
Ow 3.89951 16.363 7.5664
H 3.59853 15.8383 6.82459
H 3.18038 16.3221 8.1968
Ow 3.09619 7.98258 22.8101
H 2.60353 8.78911 22.6584
H 2.68522 7.3383 22.2337
Ow 12.9231 17.3179 6.32934
H 13.4865 16.5451 6.29031
H 12.2386 17.1488 5.68195
Ow 11.1631 11.0224 11.1997
H 10.8741 10.2569 11.6964
H 11.2851 11.7047 11.8598
Ow 7.75876 12.4308 4.07585
H 6.98849 12.2157 4.60181
H 7.65069 11.9216 3.27255
Ow 8.84397 13.0518 22.4792
H 8.91702 12.8545 21.5454
H 9.57762 12.5863 22.8809
Ow 17.2042 19.0997 24.9496
H 18.1178 18.8155 24.9779
H 16.7117 18.3602 25.3056
Ow 0.86248 20.1725 0.630613
H 1.73315 19.8277 0.432318
H 0.414581 19.4523 1.07444
Ow 18.7263 16.6845 16.5221
H 18.8566 16.4769 17.4474
H 19.6063 16.8605 16.1894
Ow 18.5031 18.5083 19.9163
H 18.4609 19.1964 19.2523
H 19.4394 18.3571 20.0459
Ow 13.5294 8.10694 15.8828
H 14.3554 8.13203 15.3998
H 12.876 8.4203 15.2574
Ow 3.86433 10.061 14.5429
H 3.2113 10.0381 13.8434
H 4.50344 10.7121 14.2532
Ow 14.9886 23.7581 5.05548
H 14.6737 24.6576 4.96637
H 15.9299 23.847 5.20434
Ow 17.542 9.31863 20.0295
H 17.8246 8.47529 20.3832
H 16.6035 9.21136 19.8742
Ow 5.81192 17.0446 19.4829
H 6.45892 17.0181 18.7779
H 6.23262 16.5889 20.212
Ow 23.2114 7.49626 17.1296
H 22.5911 7.70883 17.827
H 22.7262 7.65582 16.32
Ow 7.42262 11.87 10.5424
H 8.03974 12.599 10.606
H 6.56255 12.2725 10.6629
Ow 6.01097 4.20576 17.2425
H 6.65772 3.63013 16.8344
H 6.48581 4.63275 17.9556
Ow 5.61865 15.9416 4.61673
H 6.31527 15.4964 4.13435
H 5.20393 16.5109 3.96856
Ow 5.47468 13.8024 23.1935
H 6.25536 14.1903 23.5888
H 5.57911 13.9567 22.2546
Ow 13.1675 23.1269 7.25978
H 13.618 23.1261 8.10434
H 13.8467 23.3566 6.62569
Ow 15.3465 6.13091 2.13287
H 14.9543 5.85745 1.30366
H 15.4157 7.08306 2.06318
Ow 23.9014 9.05425 11.0983
H 23.7521 8.43138 11.8096
H 23.8791 9.91227 11.522
Ow 22.8112 10.5982 4.35634
H 22.1696 10.6053 5.06663
H 22.6493 9.77533 3.89488
Ow 13.5846 10.2166 1.36964
H 12.9275 10.2163 2.06571
H 13.5187 11.0874 0.977846
Ow 10.2239 21.1606 25.4025
H 10.7019 21.4558 24.6275
H 10.1738 20.2096 25.3058
Ow 12.1676 12.7169 20.1301
H 12.0493 12.7504 21.0794
H 13.1074 12.5805 20.01
Ow 18.3822 24.4017 16.0349
H 18.8345 23.6074 15.7507
H 18.8482 24.6733 16.8257
Ow 9.4672 2.26226 9.57833
H 9.67433 2.74957 8.78092
H 8.60928 2.59234 9.84527
Ow 4.50216 7.70277 8.307
H 3.58288 7.49141 8.14424
H 4.48276 8.29521 9.05858
Ow 3.01722 25.1216 25.0084
H 2.9001 24.1823 24.8663
H 2.14747 25.4376 25.2532
Ow 1.4147 10.2534 23.0041
H 0.915144 10.4769 22.2188
H 1.01181 10.7721 23.7005
Ow 25.2835 10.3663 14.5458
H 25.1535 10.3721 15.4941
H 24.4304 10.6078 14.1851
Ow 8.11712 15.216 3.38179
H 8.30085 14.2981 3.58149
H 8.84806 15.697 3.76988
Ow 10.5244 8.18087 11.1088
H 11.1275 7.63785 10.6013
H 9.92197 8.54245 10.4588
Ow 17.5066 1.13084 7.24321
H 17.7781 0.213639 7.20766
H 18.1753 1.55852 7.77809
Ow 18.0297 15.2404 1.54896
H 17.799 14.77 2.35007
H 17.3427 15.8997 1.45152
Ow 6.317 20.0801 5.62927
H 5.43509 19.9846 5.26963
H 6.38324 19.3898 6.28901
Ow 21.5724 20.6102 18.5234
H 22.2522 20.1328 18.0477
H 21.6936 21.5233 18.2631
Ow 17.7703 20.9087 18.678
H 17.4734 21.8097 18.805
H 17.4733 20.68 17.7972
Ow 7.61219 15.2015 24.3984
H 7.50324 15.8159 23.6725
H 6.96519 15.479 25.0469
Ow 21.7769 7.92186 14.9408
H 21.1814 7.26015 14.589
H 21.342 8.75555 14.7618
Ow 3.9759 21.7522 23.9142
H 3.56378 20.889 23.9502
H 4.11185 21.9145 22.9807
Ow 20.6476 14.3629 20.4991
H 21.3603 14.6491 19.9278
H 19.9193 14.9458 20.2845
Ow 11.9411 25.4462 14.415
H 12.1986 0.122978 15.2839
H 12.0344 24.4947 14.4605
Ow 15.6696 14.444 10.687
H 16.4342 14.9849 10.4895
H 16.0344 13.5956 10.9389
Ow 3.99035 25.1633 17.6024
H 4.82291 24.6982 17.5201
H 3.47072 24.6218 18.1966
Ow 6.88731 8.24503 16.7413
H 6.71808 7.57911 17.4077
H 7.83989 8.25443 16.6479
Ow 15.3401 6.25952 18.556
H 16.0541 6.67801 18.0751
H 14.6733 6.08507 17.8918
Ow 12.1507 23.7746 20.8241
H 12.0767 24.7164 20.6699
H 11.9558 23.3764 19.9758
Ow 18.6809 4.86015 15.8381
H 19.2304 4.096 16.0123
H 17.7937 4.50734 15.7705
Ow 21.5158 11.2446 20.4906
H 21.7063 11.9878 21.0629
H 21.9489 10.5013 20.9102
Ow 1.59003 5.21184 23.4761
H 1.85421 5.63196 22.6576
H 0.767983 5.6417 23.712
Ow 5.0879 8.42763 21.155
H 4.97992 9.37717 21.1008
H 4.386 8.13919 21.7384
Ow 7.5322 11.977 24.9222
H 6.7709 11.4928 24.6025
H 7.67084 12.6639 24.2701
Ow 22.4418 5.02278 9.01996
H 23.2612 4.65901 9.35531
H 22.2628 4.51913 8.2259
Ow 25.1129 17.5298 2.85674
H 0.111986 17.3982 3.5648
H 24.4504 16.8532 2.99657
Ow 8.45134 23.2596 0.61428
H 8.42707 23.6554 25.3745
H 9.14295 22.6002 0.559108
Ow 2.90132 13.9696 14.1139
H 3.47778 14.5566 14.6031
H 3.2851 13.101 14.2343
Ow 19.9224 21.4361 7.0803
H 19.2158 22.0818 7.08557
H 20.51 21.729 6.38374
Ow 20.3871 15.1238 9.15249
H 19.5046 15.4786 9.25945
H 20.831 15.7523 8.58306
Ow 12.0526 8.5332 20.8731
H 11.9383 8.73194 21.8025
H 11.2593 8.86974 20.4564
Ow 23.5482 0.886475 0.357769
H 23.4679 1.73658 0.790329
H 23.1578 0.266117 0.973416
Ow 23.4911 19.3802 17.3423
H 23.2148 18.9826 16.5165
H 23.9434 18.6767 17.8079
Ow 0.382325 17.3926 24.2841
H 0.151931 17.4001 23.3551
H 25.2837 17.8362 24.716
Ow 6.92364 21.5363 23.7356
H 7.24927 22.0895 24.4457
H 5.97655 21.6751 23.7384
Ow 6.0887 24.2949 20.3866
H 6.91786 24.015 20.7744
H 5.47393 23.5937 20.6027
Ow 18.6197 19.2703 2.7149
H 18.2353 20.1252 2.52108
H 18.8319 18.9025 1.85703
Ow 4.80772 9.11299 5.3535
H 4.12702 9.36435 4.72924
H 4.47471 9.40486 6.20212
Ow 8.09291 11.068 13.0685
H 8.06791 11.2906 12.1379
H 7.47246 11.6719 13.4765
Ow 23.6375 4.69466 12.453
H 22.8013 4.23467 12.3785
H 24.0584 4.56646 11.6029
Ow 9.15391 17.814 18.1186
H 9.14704 18.6142 18.6438
H 9.829 17.9667 17.4574
Ow 7.49219 16.3398 21.752
H 8.19479 16.0871 21.1531